 Entering Gaussian System, Link 0=/usr/local/g03/g03
 Initial command:
 /home/tgraen/Software/g03/l1.exe /tmp/Gau-31691.inp -scrdir=/tmp/
 Entering Link 1 = /home/tgraen/Software/g03/l1.exe PID=     31692.
  
 Copyright (c) 1988,1990,1992,1993,1995,1998,2003,2004, Gaussian, Inc.
                  All Rights Reserved.
  
 This is the Gaussian(R) 03 program.  It is based on the
 the Gaussian(R) 98 system (copyright 1998, Gaussian, Inc.),
 the Gaussian(R) 94 system (copyright 1995, Gaussian, Inc.),
 the Gaussian 92(TM) system (copyright 1992, Gaussian, Inc.),
 the Gaussian 90(TM) system (copyright 1990, Gaussian, Inc.),
 the Gaussian 88(TM) system (copyright 1988, Gaussian, Inc.),
 the Gaussian 86(TM) system (copyright 1986, Carnegie Mellon
 University), and the Gaussian 82(TM) system (copyright 1983,
 Carnegie Mellon University). Gaussian is a federally registered
 trademark of Gaussian, Inc.
  
 This software contains proprietary and confidential information,
 including trade secrets, belonging to Gaussian, Inc.
  
 This software is provided under written license and may be
 used, copied, transmitted, or stored only in accord with that
 written license.
  
 The following legend is applicable only to US Government
 contracts under FAR:
  
                    RESTRICTED RIGHTS LEGEND
  
 Use, reproduction and disclosure by the US Government is
 subject to restrictions as set forth in subparagraphs (a)
 and (c) of the Commercial Computer Software - Restricted
 Rights clause in FAR 52.227-19.
  
 Gaussian, Inc.
 340 Quinnipiac St., Bldg. 40, Wallingford CT 06492
  
  
 ---------------------------------------------------------------
 Warning -- This program may not be used in any manner that
 competes with the business of Gaussian, Inc. or will provide
 assistance to any competitor of Gaussian, Inc.  The licensee
 of this program is prohibited from giving any competitor of
 Gaussian, Inc. access to this program.  By using this program,
 the user acknowledges that Gaussian, Inc. is engaged in the
 business of creating and licensing software in the field of
 computational chemistry and represents and warrants to the
 licensee that it is not a competitor of Gaussian, Inc. and that
 it will not use this program in any manner prohibited above.
 ---------------------------------------------------------------
  

 Cite this work as:
 Gaussian 03, Revision D.01,
 M. J. Frisch, G. W. Trucks, H. B. Schlegel, G. E. Scuseria, 
 M. A. Robb, J. R. Cheeseman, J. A. Montgomery, Jr., T. Vreven, 
 K. N. Kudin, J. C. Burant, J. M. Millam, S. S. Iyengar, J. Tomasi, 
 V. Barone, B. Mennucci, M. Cossi, G. Scalmani, N. Rega, 
 G. A. Petersson, H. Nakatsuji, M. Hada, M. Ehara, K. Toyota, 
 R. Fukuda, J. Hasegawa, M. Ishida, T. Nakajima, Y. Honda, O. Kitao, 
 H. Nakai, M. Klene, X. Li, J. E. Knox, H. P. Hratchian, J. B. Cross, 
 V. Bakken, C. Adamo, J. Jaramillo, R. Gomperts, R. E. Stratmann, 
 O. Yazyev, A. J. Austin, R. Cammi, C. Pomelli, J. W. Ochterski, 
 P. Y. Ayala, K. Morokuma, G. A. Voth, P. Salvador, J. J. Dannenberg, 
 V. G. Zakrzewski, S. Dapprich, A. D. Daniels, M. C. Strain, 
 O. Farkas, D. K. Malick, A. D. Rabuck, K. Raghavachari, 
 J. B. Foresman, J. V. Ortiz, Q. Cui, A. G. Baboul, S. Clifford, 
 J. Cioslowski, B. B. Stefanov, G. Liu, A. Liashenko, P. Piskorz, 
 I. Komaromi, R. L. Martin, D. J. Fox, T. Keith, M. A. Al-Laham, 
 C. Y. Peng, A. Nanayakkara, M. Challacombe, P. M. W. Gill, 
 B. Johnson, W. Chen, M. W. Wong, C. Gonzalez, and J. A. Pople, 
 Gaussian, Inc., Wallingford CT, 2004.
 
 ******************************************
 Gaussian 03:  AM64L-G03RevD.01 13-Oct-2005
                11-Jul-2011 
 ******************************************
 %chk=input
 %mem=50000000
 %nprocshared=4
 Will use up to    4 processors via shared memory.
 %subst l701 /home/tgraen/Software/g03/devel/l701
 %subst l301 /home/tgraen/Software/g03/devel/l301
 %subst l9999 /home/tgraen/Software/g03/devel/l9999
 ----------------------------------------------------------------------
 #P B3LYP/6-31G* Charge Nosymm FORCE Punch=(Derivatives) Pop=(MK,ESPDip
 ole)iop(3/33=1)
 ----------------------------------------------------------------------
 1/10=7,18=10,28=-2,30=1,38=1/1,3;
 2/15=1,17=6,18=5,29=2,40=1/2;
 3/5=1,6=6,7=1,11=2,16=1,25=1,30=1,33=1,43=1,74=-5/1,2,3,7;
 4//1;
 5/5=2,38=5/2;
 6/7=2,8=2,9=2,10=2,15=24,20=1,28=1/1,2;
 7/7=1,16=-2,29=1,30=1/1,2,3,16;
 1/10=7,18=10,28=-2,30=1/3;
 99/10=4,12=1/99;
 Leave Link    1 at Mon Jul 11 11:39:23 2011, MaxMem=   50000000 cpu:       0.4
 (Enter /home/tgraen/Software/g03/l101.exe)
 -------------------------------
 input-file generated by gromacs
 -------------------------------
 Symbolic Z-matrix:
 Charge = -1 Multiplicity = 1
 6                     31.587    31.938    46.57 
 16                    32.599    32.712    45.101 
 6                     33.668    31.42     44.394 
 8                     33.7      30.328    44.992 
 6                     34.286    31.695    43.153 
 6                     35.243    30.818    42.737 
 6                     35.891    30.819    41.5 
 6                     35.685    31.854    40.583 
 6                     36.219    31.691    39.335 
 6                     36.982    30.531    38.833 
 6                     37.224    29.556    39.855 
 6                     36.708    29.751    41.1 
 1                     36.614    28.889    41.852 
 1                     37.923    28.735    39.642 
 8                     37.427    30.431    37.691 
 1                     36.13     32.397    38.506 
 1                     35.185    32.783    40.846 
 1                     35.484    30.017    43.439 
 1                     34.007    32.56     42.534 
 1                     31.286    32.909    46.949 
 1                     32.397    31.5      47.36 
 1                     30.60863   32.04957   46.07974 
 
                    Isotopes and Nuclear Properties:
 (Nuclear quadrupole moments (NQMom) in fm**2, nuclear magnetic moments (NMagM)
  in nuclear magnetons)

  Atom         1           2           3           4           5           6           7           8           9          10
 IAtWgt=          12          32          12          16          12          12          12          12          12          12
 AtmWgt=  12.0000000  31.9720718  12.0000000  15.9949146  12.0000000  12.0000000  12.0000000  12.0000000  12.0000000  12.0000000
 NucSpn=           0           0           0           0           0           0           0           0           0           0
 AtZEff=   0.0000000   0.0000000   0.0000000   0.0000000   0.0000000   0.0000000   0.0000000   0.0000000   0.0000000   0.0000000
 NQMom=    0.0000000   0.0000000   0.0000000   0.0000000   0.0000000   0.0000000   0.0000000   0.0000000   0.0000000   0.0000000
 NMagM=    0.0000000   0.0000000   0.0000000   0.0000000   0.0000000   0.0000000   0.0000000   0.0000000   0.0000000   0.0000000

  Atom        11          12          13          14          15          16          17          18          19          20
 IAtWgt=          12          12           1           1          16           1           1           1           1           1
 AtmWgt=  12.0000000  12.0000000   1.0078250   1.0078250  15.9949146   1.0078250   1.0078250   1.0078250   1.0078250   1.0078250
 NucSpn=           0           0           1           1           0           1           1           1           1           1
 AtZEff=   0.0000000   0.0000000   0.0000000   0.0000000   0.0000000   0.0000000   0.0000000   0.0000000   0.0000000   0.0000000
 NQMom=    0.0000000   0.0000000   0.0000000   0.0000000   0.0000000   0.0000000   0.0000000   0.0000000   0.0000000   0.0000000
 NMagM=    0.0000000   0.0000000   2.7928460   2.7928460   0.0000000   2.7928460   2.7928460   2.7928460   2.7928460   2.7928460

  Atom        21          22
 IAtWgt=           1           1
 AtmWgt=   1.0078250   1.0078250
 NucSpn=           1           1
 AtZEff=   0.0000000   0.0000000
 NQMom=    0.0000000   0.0000000
 NMagM=    2.7928460   2.7928460
 Leave Link  101 at Mon Jul 11 11:39:23 2011, MaxMem=   50000000 cpu:       0.2
 (Enter /home/tgraen/Software/g03/l103.exe)

 GradGradGradGradGradGradGradGradGradGradGradGradGradGradGradGradGradGrad
 Berny optimization.
 Initialization pass.
 Trust Radius=3.00D-01 FncErr=1.00D-07 GrdErr=1.00D-07
 Number of steps in this run=   2 maximum allowed number of steps=   2.
 GradGradGradGradGradGradGradGradGradGradGradGradGradGradGradGradGradGrad

 Leave Link  103 at Mon Jul 11 11:39:24 2011, MaxMem=   50000000 cpu:       0.1
 (Enter /home/tgraen/Software/g03/l202.exe)
 ------------------------------------------------------------------------
                         Z-MATRIX (ANGSTROMS AND DEGREES)
 CD Cent Atom  N1     Length/X     N2    Alpha/Y     N3     Beta/Z      J
 ------------------------------------------------------------------------
   1   1  C     0  31.587000         31.938000         46.570000
   2   2  S     0  32.599000         32.712000         45.101000
   3   3  C     0  33.668000         31.420000         44.394000
   4   4  O     0  33.700000         30.328000         44.992000
   5   5  C     0  34.286000         31.695000         43.153000
   6   6  C     0  35.243000         30.818000         42.737000
   7   7  C     0  35.891000         30.819000         41.500000
   8   8  C     0  35.685000         31.854000         40.583000
   9   9  C     0  36.219000         31.691000         39.335000
  10  10  C     0  36.982000         30.531000         38.833000
  11  11  C     0  37.224000         29.556000         39.855000
  12  12  C     0  36.708000         29.751000         41.100000
  13  13  H     0  36.614000         28.889000         41.852000
  14  14  H     0  37.923000         28.735000         39.642000
  15  15  O     0  37.427000         30.431000         37.691000
  16  16  H     0  36.130000         32.397000         38.506000
  17  17  H     0  35.185000         32.783000         40.846000
  18  18  H     0  35.484000         30.017000         43.439000
  19  19  H     0  34.007000         32.560000         42.534000
  20  20  H     0  31.286000         32.909000         46.949000
  21  21  H     0  32.397000         31.500000         47.360000
  22  22  H     0  30.608633         32.049568         46.079744
 ------------------------------------------------------------------------
                         Z-Matrix orientation:                         
 ---------------------------------------------------------------------
 Center     Atomic     Atomic              Coordinates (Angstroms)
 Number     Number      Type              X           Y           Z
 ---------------------------------------------------------------------
    1          6             0       31.587000   31.938000   46.570000
    2         16             0       32.599000   32.712000   45.101000
    3          6             0       33.668000   31.420000   44.394000
    4          8             0       33.700000   30.328000   44.992000
    5          6             0       34.286000   31.695000   43.153000
    6          6             0       35.243000   30.818000   42.737000
    7          6             0       35.891000   30.819000   41.500000
    8          6             0       35.685000   31.854000   40.583000
    9          6             0       36.219000   31.691000   39.335000
   10          6             0       36.982000   30.531000   38.833000
   11          6             0       37.224000   29.556000   39.855000
   12          6             0       36.708000   29.751000   41.100000
   13          1             0       36.614000   28.889000   41.852000
   14          1             0       37.923000   28.735000   39.642000
   15          8             0       37.427000   30.431000   37.691000
   16          1             0       36.130000   32.397000   38.506000
   17          1             0       35.185000   32.783000   40.846000
   18          1             0       35.484000   30.017000   43.439000
   19          1             0       34.007000   32.560000   42.534000
   20          1             0       31.286000   32.909000   46.949000
   21          1             0       32.397000   31.500000   47.360000
   22          1             0       30.608633   32.049568   46.079744
 ---------------------------------------------------------------------
                    Distance matrix (angstroms):
                    1          2          3          4          5
     1  C    0.000000
     2  S    1.944526   0.000000
     3  C    3.055137   1.819855   0.000000
     4  O    3.089814   2.628220   1.245428   0.000000
     5  C    4.361140   2.770372   1.413375   2.365165   0.000000
     6  C    5.414114   4.020755   2.364038   2.775964   1.363097
     7  C    6.743996   5.233346   3.698400   4.151581   2.464916
     8  C    7.255676   5.538220   4.333632   5.070324   2.930424
     9  C    8.594281   6.884301   5.672259   6.340724   4.279443
    10  C    9.536605   7.953318   6.534343   6.981835   5.223573
    11  C    9.085203   7.672775   6.059881   6.277207   4.907542
    12  C    7.805672   6.454410   4.783053   4.952641   3.722906
    13  H    7.538346   6.425851   4.641836   4.519039   3.871152
    14  H    9.919742   8.600127   6.920676   6.999563   5.858028
    15  O   10.733745   9.133490   7.748446   8.197911   6.426276
    16  H    9.267018   7.487403   6.456355   7.228683   5.048539
    17  H    6.813502   4.979705   4.092354   5.041980   2.704477
    18  H    5.355372   4.283514   2.485617   2.385621   2.081510
    19  H    4.746849   2.931733   2.207741   3.334342   1.099649
    20  H    1.084935   2.275496   3.797245   4.039654   4.988328
    21  H    1.213278   2.571542   3.227847   2.945983   4.615755
    22  H    1.100000   2.314804   3.549340   3.701828   4.713234
                    6          7          8          9         10
     6  C    0.000000
     7  C    1.396451   0.000000
     8  C    2.430715   1.398052   0.000000
     9  C    3.645313   2.356946   1.367197   0.000000
    10  C    4.283422   2.895879   2.548536   1.476405   0.000000
    11  C    3.717920   2.465377   2.859949   2.416330   1.433064
    12  C    2.442229   1.402895   2.395084   2.667948   2.413041
    13  H    2.526639   2.090821   3.356282   3.787152   3.456291
    14  H    4.593508   3.453150   3.952504   3.425756   2.183020
    15  O    5.511963   4.125327   3.663763   2.397832   1.229711
    16  H    4.602322   3.392822   2.192442   1.092519   2.077207
    17  H    2.727722   2.187110   1.087295   2.131840   3.514667
    18  H    1.092010   2.137422   3.401721   4.492807   4.870671
    19  H    2.145570   2.765808   2.668430   3.985186   5.163804
    20  H    6.145818   7.434092   7.809621   9.153743  10.196507
    21  H    5.471469   6.856486   7.540822   8.890714   9.729898
    22  H    5.845344   7.098715   7.484781   8.780453   9.769399
                   11         12         13         14         15
    11  C    0.000000
    12  C    1.361729   0.000000
    13  H    2.192031   1.147773   0.000000
    14  H    1.099096   2.152730   2.573188   0.000000
    15  O    2.343017   3.549738   4.511392   2.632268   0.000000
    16  H    3.329853   3.750231   4.871964   4.232681   2.492306
    17  H    3.943746   3.402509   4.268174   5.033147   4.529072
    18  H    4.010633   2.653272   2.251189   4.691423   6.081624
    19  H    5.152683   4.152377   4.553879   6.191070   6.299499
    20  H    9.840086   8.577986   8.398059  10.717476  11.382571
    21  H    9.132584   7.799444   7.412049   9.886831  10.951403
    22  H    9.419575   8.202654   7.995464  10.292272  10.930732
                   16         17         18         19         20
    16  H    0.000000
    17  H    2.552963   0.000000
    18  H    5.515089   3.803131   0.000000
    19  H    4.556148   2.070449   3.076915   0.000000
    20  H    9.747345   7.243251   6.189262   5.197871   0.000000
    21  H    9.650555   7.200780   5.206064   5.196727   1.840794
    22  H    9.379115   6.990932   5.905426   4.937787   1.397517
                   21         22
    21  H    0.000000
    22  H    2.267010   0.000000
 Symmetry turned off by external request.
 Stoichiometry    C10H9O2S(1-)
 Framework group  C1[X(C10H9O2S)]
 Deg. of freedom    60
 Full point group                 C1
 Rotational constants (GHZ):      2.9538358      0.2298919      0.2151803
 Leave Link  202 at Mon Jul 11 11:39:24 2011, MaxMem=   50000000 cpu:       0.2
 (Enter /home/tgraen/Software/g03/devel/l301/l301.exe)
 Standard basis: 6-31G(d) (6D, 7F)
                         Coordinates in L301:                         
 ---------------------------------------------------------------------
 Center     Atomic     Atomic              Coordinates (Angstroms)
 Number     Number      Type              X           Y           Z
 ---------------------------------------------------------------------
    1          6             0       31.587000   31.938000   46.570000
    2         16             0       32.599000   32.712000   45.101000
    3          6             0       33.668000   31.420000   44.394000
    4          8             0       33.700000   30.328000   44.992000
    5          6             0       34.286000   31.695000   43.153000
    6          6             0       35.243000   30.818000   42.737000
    7          6             0       35.891000   30.819000   41.500000
    8          6             0       35.685000   31.854000   40.583000
    9          6             0       36.219000   31.691000   39.335000
   10          6             0       36.982000   30.531000   38.833000
   11          6             0       37.224000   29.556000   39.855000
   12          6             0       36.708000   29.751000   41.100000
   13          1             0       36.614000   28.889000   41.852000
   14          1             0       37.923000   28.735000   39.642000
   15          8             0       37.427000   30.431000   37.691000
   16          1             0       36.130000   32.397000   38.506000
   17          1             0       35.185000   32.783000   40.846000
   18          1             0       35.484000   30.017000   43.439000
   19          1             0       34.007000   32.560000   42.534000
   20          1             0       31.286000   32.909000   46.949000
   21          1             0       32.397000   31.500000   47.360000
   22          1             0       30.608633   32.049568   46.079744
 ---------------------------------------------------------------------
 LdAtmC:  AtmChg=     6.000000    16.000000     6.000000     8.000000     6.000000
 LdAtmC:  AtmChg=     6.000000     6.000000     6.000000     6.000000     6.000000
 LdAtmC:  AtmChg=     6.000000     6.000000     1.000000     1.000000     8.000000
 LdAtmC:  AtmChg=     1.000000     1.000000     1.000000     1.000000     1.000000
 LdAtmC:  AtmChg=     1.000000     1.000000
 AtZEff=  -3.6000000 -13.6000000  -3.6000000  -5.6000000  -3.6000000  -3.6000000  -3.6000000  -3.6000000  -3.6000000  -3.6000000
 AtZEff=  -3.6000000  -3.6000000  -1.0000000  -1.0000000  -5.6000000  -1.0000000  -1.0000000  -1.0000000  -1.0000000  -1.0000000
 AtZEff=  -1.0000000  -1.0000000
 Integral buffers will be    131072 words long.
 Raffenetti 2 integral format.
 Two-electron integral symmetry is turned off.
 Background charge distribution read from input stream:
 Point Charges:
 XYZ=   52.0870   27.7460   37.1280 Q=   -0.8340 A=    0.0000 R=    0.0000 C=    0.0000
 XYZ=   52.4920   26.9240   36.7410 Q=    0.4170 A=    0.0000 R=    0.0000 C=    0.0000
 XYZ=   52.8290   28.3900   37.2640 Q=    0.4170 A=    0.0000 R=    0.0000 C=    0.0000
 XYZ=   40.4080   26.2680   44.4860 Q=   -0.8340 A=    0.0000 R=    0.0000 C=    0.0000
 XYZ=   27.7670   37.0220   57.9800 Q=   -0.8340 A=    0.0000 R=    0.0000 C=    0.0000
 XYZ=   27.6910   37.5710   58.8030 Q=    0.4170 A=    0.0000 R=    0.0000 C=    0.0000
 XYZ=   26.9720   36.4290   57.9540 Q=    0.4170 A=    0.0000 R=    0.0000 C=    0.0000
 XYZ=   32.9980   41.5460   26.5750 Q=   -0.0024 A=    0.0000 R=    0.0000 C=    0.0000
 XYZ=   33.3290   40.5070   26.5940 Q=    0.0978 A=    0.0000 R=    0.0000 C=    0.0000
 XYZ=   33.2650   42.1950   27.9300 Q=   -0.0343 A=    0.0000 R=    0.0000 C=    0.0000
 XYZ=   32.7820   43.1720   27.9310 Q=    0.0295 A=    0.0000 R=    0.0000 C=    0.0000
 XYZ=   34.3380   42.2900   28.0950 Q=    0.0295 A=    0.0000 R=    0.0000 C=    0.0000
 XYZ=   32.7950   41.3260   29.0720 Q=    0.0118 A=    0.0000 R=    0.0000 C=    0.0000
 XYZ=   31.4910   41.2960   29.5820 Q=   -0.1256 A=    0.0000 R=    0.0000 C=    0.0000
 XYZ=   30.7800   41.9380   29.0850 Q=    0.1330 A=    0.0000 R=    0.0000 C=    0.0000
 XYZ=   31.0650   40.3730   30.5460 Q=   -0.1704 A=    0.0000 R=    0.0000 C=    0.0000
 XYZ=   30.0830   40.5480   30.9590 Q=    0.1430 A=    0.0000 R=    0.0000 C=    0.0000
 XYZ=   32.0570   39.5350   31.0670 Q=   -0.1072 A=    0.0000 R=    0.0000 C=    0.0000
 XYZ=   31.7030   38.8790   31.8490 Q=    0.1297 A=    0.0000 R=    0.0000 C=    0.0000
 XYZ=   33.3990   39.5870   30.6710 Q=   -0.1704 A=    0.0000 R=    0.0000 C=    0.0000
 XYZ=   34.2240   39.0560   31.1230 Q=    0.1430 A=    0.0000 R=    0.0000 C=    0.0000
 XYZ=   33.7240   40.4170   29.5920 Q=   -0.1256 A=    0.0000 R=    0.0000 C=    0.0000
 XYZ=   34.7120   40.3180   29.1660 Q=    0.1330 A=    0.0000 R=    0.0000 C=    0.0000
 XYZ=   31.5080   41.6140   26.2720 Q=    0.5973 A=    0.0000 R=    0.0000 C=    0.0000
 XYZ=   30.9230   40.4140   26.2770 Q=   -0.4157 A=    0.0000 R=    0.0000 C=    0.0000
 XYZ=   31.4840   39.6290   26.5770 Q=    0.2719 A=    0.0000 R=    0.0000 C=    0.0000
 XYZ=   29.5030   39.0550   25.8120 Q=    0.0698 A=    0.0000 R=    0.0000 C=    0.0000
 XYZ=   30.8220   17.9930   44.1060 Q=   -0.8340 A=    0.0000 R=    0.0000 C=    0.0000
 XYZ=   29.9170   17.7020   44.3780 Q=    0.4170 A=    0.0000 R=    0.0000 C=    0.0000
 XYZ=   30.9470   18.8920   44.4910 Q=    0.4170 A=    0.0000 R=    0.0000 C=    0.0000
 XYZ=   33.0890   17.8320   53.5890 Q=   -0.8340 A=    0.0000 R=    0.0000 C=    0.0000
 XYZ=   48.7050   42.3090   37.2420 Q=   -0.8340 A=    0.0000 R=    0.0000 C=    0.0000
 XYZ=   33.2450   16.6980   43.7330 Q=   -0.8340 A=    0.0000 R=    0.0000 C=    0.0000
 XYZ=   49.4570   42.1040   37.8330 Q=    0.4170 A=    0.0000 R=    0.0000 C=    0.0000
 XYZ=   22.4830   22.0080   52.6560 Q=   -0.8340 A=    0.0000 R=    0.0000 C=    0.0000
 XYZ=   23.1120   22.4740   53.2760 Q=    0.4170 A=    0.0000 R=    0.0000 C=    0.0000
 XYZ=   22.7640   22.2190   51.7290 Q=    0.4170 A=    0.0000 R=    0.0000 C=    0.0000
 XYZ=   32.4200   17.2440   43.7290 Q=    0.4170 A=    0.0000 R=    0.0000 C=    0.0000
 XYZ=   28.6090   22.8870   56.5670 Q=    0.4170 A=    0.0000 R=    0.0000 C=    0.0000
 XYZ=   27.9120   21.9670   55.4720 Q=    0.4170 A=    0.0000 R=    0.0000 C=    0.0000
 XYZ=   33.3110   16.3240   44.6450 Q=    0.4170 A=    0.0000 R=    0.0000 C=    0.0000
 XYZ=   48.7550   17.9640   42.1500 Q=   -0.8340 A=    0.0000 R=    0.0000 C=    0.0000
 XYZ=   49.7160   18.1020   42.3610 Q=    0.4170 A=    0.0000 R=    0.0000 C=    0.0000
 XYZ=   48.7160   17.3740   41.3570 Q=    0.4170 A=    0.0000 R=    0.0000 C=    0.0000
 XYZ=   33.6470   18.3790   54.2010 Q=    0.4170 A=    0.0000 R=    0.0000 C=    0.0000
 XYZ=   27.6340   43.5260   49.2960 Q=   -0.8340 A=    0.0000 R=    0.0000 C=    0.0000
 XYZ=   26.7900   43.9400   49.0260 Q=    0.4170 A=    0.0000 R=    0.0000 C=    0.0000
 XYZ=   28.1190   44.1960   49.8430 Q=    0.4170 A=    0.0000 R=    0.0000 C=    0.0000
 XYZ=   31.8110   35.0040   23.9110 Q=    0.0236 A=    0.0000 R=    0.0000 C=    0.0000
 XYZ=   32.2220   36.9210   24.6600 Q=   -0.0660 A=    0.0000 R=    0.0000 C=    0.0000
 XYZ=   33.0360   36.5180   25.2630 Q=    0.0186 A=    0.0000 R=    0.0000 C=    0.0000
 XYZ=   32.4540   37.9370   24.3420 Q=    0.0186 A=    0.0000 R=    0.0000 C=    0.0000
 XYZ=   31.3180   37.0000   25.2640 Q=    0.0186 A=    0.0000 R=    0.0000 C=    0.0000
 XYZ=   25.9250   41.3440   49.9960 Q=   -0.8340 A=    0.0000 R=    0.0000 C=    0.0000
 XYZ=   26.1120   40.6230   50.6530 Q=    0.4170 A=    0.0000 R=    0.0000 C=    0.0000
 XYZ=   39.1920   28.0860   53.8070 Q=   -0.8340 A=    0.0000 R=    0.0000 C=    0.0000
 XYZ=   39.5260   28.9830   53.5440 Q=    0.4170 A=    0.0000 R=    0.0000 C=    0.0000
 XYZ=   39.6410   27.8300   54.6400 Q=    0.4170 A=    0.0000 R=    0.0000 C=    0.0000
 XYZ=   46.9920   18.5240   44.2370 Q=   -0.8340 A=    0.0000 R=    0.0000 C=    0.0000
 XYZ=   47.5940   18.2330   43.5080 Q=    0.4170 A=    0.0000 R=    0.0000 C=    0.0000
 XYZ=   47.5640   18.7140   45.0240 Q=    0.4170 A=    0.0000 R=    0.0000 C=    0.0000
 XYZ=   23.1060   24.4690   48.5410 Q=   -0.8340 A=    0.0000 R=    0.0000 C=    0.0000
 XYZ=   23.5650   24.7560   47.7130 Q=    0.4170 A=    0.0000 R=    0.0000 C=    0.0000
 XYZ=   23.0900   25.2610   49.1260 Q=    0.4170 A=    0.0000 R=    0.0000 C=    0.0000
 XYZ=   35.4590   17.2880   42.1900 Q=   -0.8340 A=    0.0000 R=    0.0000 C=    0.0000
 XYZ=   42.3080   37.6520   53.1790 Q=   -0.8340 A=    0.0000 R=    0.0000 C=    0.0000
 XYZ=   42.1170   36.7860   53.6260 Q=    0.4170 A=    0.0000 R=    0.0000 C=    0.0000
 XYZ=   41.5390   38.2320   53.3360 Q=    0.4170 A=    0.0000 R=    0.0000 C=    0.0000
 XYZ=   35.1680   30.8740   22.2660 Q=    0.0457 A=    0.0000 R=    0.0000 C=    0.0000
 XYZ=   34.8980   33.4740   23.2770 Q=   -0.4121 A=    0.0000 R=    0.0000 C=    0.0000
 XYZ=   35.0850   32.6920   24.0130 Q=    0.1000 A=    0.0000 R=    0.0000 C=    0.0000
 XYZ=   35.4420   34.3830   23.5330 Q=    0.1000 A=    0.0000 R=    0.0000 C=    0.0000
 XYZ=   33.8490   33.7340   23.4180 Q=    0.1000 A=    0.0000 R=    0.0000 C=    0.0000
 XYZ=   46.5470   40.8840   37.9700 Q=   -0.8340 A=    0.0000 R=    0.0000 C=    0.0000
 XYZ=   37.2570   32.7190   22.1620 Q=    0.1000 A=    0.0000 R=    0.0000 C=    0.0000
 XYZ=   46.0970   40.2780   37.3220 Q=    0.4170 A=    0.0000 R=    0.0000 C=    0.0000
 XYZ=   26.9180   39.4770   46.9300 Q=   -0.8340 A=    0.0000 R=    0.0000 C=    0.0000
 XYZ=   27.4790   38.7610   47.3280 Q=    0.4170 A=    0.0000 R=    0.0000 C=    0.0000
 XYZ=   27.3940   40.3260   47.1310 Q=    0.4170 A=    0.0000 R=    0.0000 C=    0.0000
 XYZ=   45.1580   39.5850   40.0630 Q=   -0.8340 A=    0.0000 R=    0.0000 C=    0.0000
 XYZ=   44.8710   38.8240   39.4940 Q=    0.4170 A=    0.0000 R=    0.0000 C=    0.0000
 XYZ=   17.7300   26.7730   45.1620 Q=   -0.8340 A=    0.0000 R=    0.0000 C=    0.0000
 XYZ=   16.8900   26.3550   45.5010 Q=    0.4170 A=    0.0000 R=    0.0000 C=    0.0000
 XYZ=   18.1580   27.2170   45.9330 Q=    0.4170 A=    0.0000 R=    0.0000 C=    0.0000
 XYZ=   29.3590   32.9320   48.3950 Q=    0.4170 A=    0.0000 R=    0.0000 C=    0.0000
 XYZ=   46.0640   39.3910   40.4070 Q=    0.4170 A=    0.0000 R=    0.0000 C=    0.0000
 XYZ=   28.8420   21.9510   46.3730 Q=   -0.8340 A=    0.0000 R=    0.0000 C=    0.0000
 XYZ=   28.2480   22.4580   45.7620 Q=    0.4170 A=    0.0000 R=    0.0000 C=    0.0000
 XYZ=   29.4250   21.3770   45.8210 Q=    0.4170 A=    0.0000 R=    0.0000 C=    0.0000
 XYZ=   39.3710   28.3330   22.1290 Q=    0.0241 A=    0.0000 R=    0.0000 C=    0.0000
 XYZ=   37.6690   28.7760   21.9030 Q=    0.0241 A=    0.0000 R=    0.0000 C=    0.0000
 XYZ=   29.5200   44.2430   45.5940 Q=    0.4170 A=    0.0000 R=    0.0000 C=    0.0000
 XYZ=   28.6770   43.6210   44.4020 Q=    0.4170 A=    0.0000 R=    0.0000 C=    0.0000
 XYZ=   37.5400   25.8350   22.6950 Q=   -0.5679 A=    0.0000 R=    0.0000 C=    0.0000
 XYZ=   39.1690   24.2050   23.6300 Q=    0.0880 A=    0.0000 R=    0.0000 C=    0.0000
 XYZ=   40.8300   25.3760   23.9510 Q=    0.5366 A=    0.0000 R=    0.0000 C=    0.0000
 XYZ=   41.1540   26.5080   23.6000 Q=   -0.5819 A=    0.0000 R=    0.0000 C=    0.0000
 XYZ=   41.2180   24.8940   25.1340 Q=   -0.5163 A=    0.0000 R=    0.0000 C=    0.0000
 XYZ=   40.8570   24.0140   25.4740 Q=    0.2936 A=    0.0000 R=    0.0000 C=    0.0000
 XYZ=   41.9280   25.6390   26.1540 Q=    0.0381 A=    0.0000 R=    0.0000 C=    0.0000
 XYZ=   41.2900   26.4370   26.5360 Q=    0.0880 A=    0.0000 R=    0.0000 C=    0.0000
 XYZ=   42.1520   24.7430   27.3680 Q=   -0.0303 A=    0.0000 R=    0.0000 C=    0.0000
 XYZ=   41.2660   24.1160   27.4630 Q=   -0.0122 A=    0.0000 R=    0.0000 C=    0.0000
 XYZ=   42.0860   25.4130   28.2260 Q=   -0.0122 A=    0.0000 R=    0.0000 C=    0.0000
 XYZ=   43.4550   23.9610   27.4510 Q=    0.7994 A=    0.0000 R=    0.0000 C=    0.0000
 XYZ=   43.7470   22.9830   26.7300 Q=   -0.8014 A=    0.0000 R=    0.0000 C=    0.0000
 XYZ=   44.3490   24.2910   28.2600 Q=   -0.8014 A=    0.0000 R=    0.0000 C=    0.0000
 XYZ=   43.2290   26.3120   25.7390 Q=    0.5366 A=    0.0000 R=    0.0000 C=    0.0000
 XYZ=   43.5280   27.3570   26.3140 Q=   -0.5819 A=    0.0000 R=    0.0000 C=    0.0000
 XYZ=   43.9120   25.8470   24.6910 Q=   -0.4157 A=    0.0000 R=    0.0000 C=    0.0000
 XYZ=   43.4830   25.0870   24.1830 Q=    0.2719 A=    0.0000 R=    0.0000 C=    0.0000
 XYZ=   29.8130   19.6460   56.5860 Q=    0.4170 A=    0.0000 R=    0.0000 C=    0.0000
 XYZ=   29.9440   20.9780   55.7520 Q=    0.4170 A=    0.0000 R=    0.0000 C=    0.0000
 XYZ=   45.8140   26.7270   24.9900 Q=    0.0698 A=    0.0000 R=    0.0000 C=    0.0000
 XYZ=   24.2630   23.0370   54.4490 Q=   -0.8340 A=    0.0000 R=    0.0000 C=    0.0000
 XYZ=   41.3660   26.3890   44.2440 Q=    0.4170 A=    0.0000 R=    0.0000 C=    0.0000
 XYZ=   40.2570   26.7270   45.3580 Q=    0.4170 A=    0.0000 R=    0.0000 C=    0.0000
 XYZ=   42.5460   29.5740   22.5860 Q=    0.5973 A=    0.0000 R=    0.0000 C=    0.0000
 XYZ=   41.9830   29.2440   23.7510 Q=   -0.4157 A=    0.0000 R=    0.0000 C=    0.0000
 XYZ=   41.9020   28.2640   23.9780 Q=    0.2719 A=    0.0000 R=    0.0000 C=    0.0000
 XYZ=   41.1470   30.1170   24.5500 Q=   -0.0518 A=    0.0000 R=    0.0000 C=    0.0000
 XYZ=   40.3990   30.6750   23.9850 Q=    0.0922 A=    0.0000 R=    0.0000 C=    0.0000
 XYZ=   40.4480   29.1590   25.5100 Q=   -0.1102 A=    0.0000 R=    0.0000 C=    0.0000
 XYZ=   41.1730   28.9350   26.2930 Q=    0.0457 A=    0.0000 R=    0.0000 C=    0.0000
 XYZ=   40.1960   28.2400   24.9800 Q=    0.0457 A=    0.0000 R=    0.0000 C=    0.0000
 XYZ=   39.0830   29.6060   26.0230 Q=    0.3531 A=    0.0000 R=    0.0000 C=    0.0000
 XYZ=   39.2160   30.5300   26.5860 Q=   -0.0361 A=    0.0000 R=    0.0000 C=    0.0000
 XYZ=   38.0020   29.7330   24.9530 Q=   -0.4121 A=    0.0000 R=    0.0000 C=    0.0000
 XYZ=   38.2390   30.5070   24.2230 Q=    0.1000 A=    0.0000 R=    0.0000 C=    0.0000
 XYZ=   37.6540   28.8440   24.4270 Q=    0.1000 A=    0.0000 R=    0.0000 C=    0.0000
 XYZ=   37.0950   30.0640   25.4590 Q=    0.1000 A=    0.0000 R=    0.0000 C=    0.0000
 XYZ=   38.4710   28.6710   27.0620 Q=   -0.4121 A=    0.0000 R=    0.0000 C=    0.0000
 XYZ=   37.6260   29.2170   27.4810 Q=    0.1000 A=    0.0000 R=    0.0000 C=    0.0000
 XYZ=   38.2070   27.6730   26.7100 Q=    0.1000 A=    0.0000 R=    0.0000 C=    0.0000
 XYZ=   39.1550   28.5410   27.9010 Q=    0.1000 A=    0.0000 R=    0.0000 C=    0.0000
 XYZ=   41.9960   31.1410   25.2910 Q=    0.5973 A=    0.0000 R=    0.0000 C=    0.0000
 XYZ=   41.3480   31.9260   25.9800 Q=   -0.5679 A=    0.0000 R=    0.0000 C=    0.0000
 XYZ=   43.3240   31.0720   25.1720 Q=   -0.5163 A=    0.0000 R=    0.0000 C=    0.0000
 XYZ=   43.5170   30.1230   24.8830 Q=    0.2936 A=    0.0000 R=    0.0000 C=    0.0000
 XYZ=   44.2740   31.9520   25.8210 Q=    0.0381 A=    0.0000 R=    0.0000 C=    0.0000
 XYZ=   43.9120   32.0310   26.8460 Q=    0.0880 A=    0.0000 R=    0.0000 C=    0.0000
 XYZ=   45.5660   31.1430   25.8870 Q=   -0.0303 A=    0.0000 R=    0.0000 C=    0.0000
 XYZ=   45.9530   30.9680   24.8830 Q=   -0.0122 A=    0.0000 R=    0.0000 C=    0.0000
 XYZ=   45.4010   30.1440   26.2900 Q=   -0.0122 A=    0.0000 R=    0.0000 C=    0.0000
 XYZ=   46.5930   31.7660   26.8220 Q=    0.7994 A=    0.0000 R=    0.0000 C=    0.0000
 XYZ=   47.7030   31.9090   26.2670 Q=   -0.8014 A=    0.0000 R=    0.0000 C=    0.0000
 XYZ=   46.4820   32.1050   28.0200 Q=   -0.8014 A=    0.0000 R=    0.0000 C=    0.0000
 XYZ=   44.4280   33.3300   25.1930 Q=    0.5366 A=    0.0000 R=    0.0000 C=    0.0000
 XYZ=   44.7270   34.2990   25.8880 Q=   -0.5819 A=    0.0000 R=    0.0000 C=    0.0000
 XYZ=   44.0880   33.3990   23.9040 Q=   -0.4157 A=    0.0000 R=    0.0000 C=    0.0000
 XYZ=   43.7620   32.5550   23.4550 Q=    0.2719 A=    0.0000 R=    0.0000 C=    0.0000
 XYZ=   34.6460   40.0060   56.8510 Q=   -0.8340 A=    0.0000 R=    0.0000 C=    0.0000
 XYZ=   34.3970   39.0650   56.9710 Q=    0.4170 A=    0.0000 R=    0.0000 C=    0.0000
 XYZ=   33.9400   40.4350   56.3030 Q=    0.4170 A=    0.0000 R=    0.0000 C=    0.0000
 XYZ=   42.2590   35.4060   24.3510 Q=   -0.4157 A=    0.0000 R=    0.0000 C=    0.0000
 XYZ=   42.4840   34.5720   24.8740 Q=    0.2719 A=    0.0000 R=    0.0000 C=    0.0000
 XYZ=   41.2510   36.3030   24.8800 Q=   -0.0518 A=    0.0000 R=    0.0000 C=    0.0000
 XYZ=   40.8860   36.9890   24.1150 Q=    0.0922 A=    0.0000 R=    0.0000 C=    0.0000
 XYZ=   40.0250   35.5380   25.3700 Q=   -0.1102 A=    0.0000 R=    0.0000 C=    0.0000
 XYZ=   39.3790   36.2060   25.9390 Q=    0.0457 A=    0.0000 R=    0.0000 C=    0.0000
 XYZ=   40.4730   34.7690   26.0000 Q=    0.0457 A=    0.0000 R=    0.0000 C=    0.0000
 XYZ=   39.2660   34.8850   24.2190 Q=    0.3531 A=    0.0000 R=    0.0000 C=    0.0000
 XYZ=   39.9580   34.3220   23.5930 Q=   -0.0361 A=    0.0000 R=    0.0000 C=    0.0000
 XYZ=   38.2710   33.9760   24.9350 Q=   -0.4121 A=    0.0000 R=    0.0000 C=    0.0000
 XYZ=   37.6120   34.5480   25.5880 Q=    0.1000 A=    0.0000 R=    0.0000 C=    0.0000
 XYZ=   37.5750   33.5390   24.2190 Q=    0.1000 A=    0.0000 R=    0.0000 C=    0.0000
 XYZ=   38.7970   33.1660   25.4410 Q=    0.1000 A=    0.0000 R=    0.0000 C=    0.0000
 XYZ=   38.5390   35.9420   23.3930 Q=   -0.4121 A=    0.0000 R=    0.0000 C=    0.0000
 XYZ=   37.8280   36.4400   24.0530 Q=    0.1000 A=    0.0000 R=    0.0000 C=    0.0000
 XYZ=   41.8010   37.2040   25.9770 Q=    0.5973 A=    0.0000 R=    0.0000 C=    0.0000
 XYZ=   42.7050   36.8260   26.7190 Q=   -0.5679 A=    0.0000 R=    0.0000 C=    0.0000
 XYZ=   41.1960   38.3920   26.0420 Q=   -0.4157 A=    0.0000 R=    0.0000 C=    0.0000
 XYZ=   40.4490   38.5470   25.3800 Q=    0.2719 A=    0.0000 R=    0.0000 C=    0.0000
 XYZ=   41.5780   39.4480   26.9580 Q=    0.0337 A=    0.0000 R=    0.0000 C=    0.0000
 XYZ=   42.6120   39.3650   27.2910 Q=    0.0823 A=    0.0000 R=    0.0000 C=    0.0000
 XYZ=   41.5950   40.7350   26.1370 Q=   -0.1825 A=    0.0000 R=    0.0000 C=    0.0000
 XYZ=   43.7110   25.6560   53.8970 Q=    0.4170 A=    0.0000 R=    0.0000 C=    0.0000
 XYZ=   40.7120   39.4150   28.2090 Q=    0.5973 A=    0.0000 R=    0.0000 C=    0.0000
 XYZ=   40.5270   40.4670   28.8180 Q=   -0.5679 A=    0.0000 R=    0.0000 C=    0.0000
 XYZ=   40.0790   38.2900   28.5470 Q=   -0.4157 A=    0.0000 R=    0.0000 C=    0.0000
 XYZ=   40.3130   37.4710   28.0040 Q=    0.2719 A=    0.0000 R=    0.0000 C=    0.0000
 XYZ=   39.2660   38.1770   29.7410 Q=   -0.0024 A=    0.0000 R=    0.0000 C=    0.0000
 XYZ=   39.8300   38.6220   30.5610 Q=    0.0978 A=    0.0000 R=    0.0000 C=    0.0000
 XYZ=   37.9390   38.8960   29.5150 Q=   -0.0343 A=    0.0000 R=    0.0000 C=    0.0000
 XYZ=   38.2400   39.9360   29.3890 Q=    0.0295 A=    0.0000 R=    0.0000 C=    0.0000
 XYZ=   37.3290   38.8320   30.4160 Q=    0.0295 A=    0.0000 R=    0.0000 C=    0.0000
 XYZ=   37.1250   38.4990   28.3070 Q=    0.0118 A=    0.0000 R=    0.0000 C=    0.0000
 XYZ=   36.5070   37.2440   28.2460 Q=   -0.1256 A=    0.0000 R=    0.0000 C=    0.0000
 XYZ=   36.4250   36.6680   29.1560 Q=    0.1330 A=    0.0000 R=    0.0000 C=    0.0000
 XYZ=   35.7460   36.9060   27.1210 Q=   -0.1704 A=    0.0000 R=    0.0000 C=    0.0000
 XYZ=   35.1960   35.9770   27.1040 Q=    0.1430 A=    0.0000 R=    0.0000 C=    0.0000
 XYZ=   35.6720   37.8080   26.0520 Q=   -0.1072 A=    0.0000 R=    0.0000 C=    0.0000
 XYZ=   35.1190   37.6480   25.1380 Q=    0.1297 A=    0.0000 R=    0.0000 C=    0.0000
 XYZ=   36.2070   39.1010   26.0920 Q=   -0.1704 A=    0.0000 R=    0.0000 C=    0.0000
 XYZ=   36.2900   39.7890   25.2630 Q=    0.1430 A=    0.0000 R=    0.0000 C=    0.0000
 XYZ=   36.9420   39.3950   27.2470 Q=   -0.1256 A=    0.0000 R=    0.0000 C=    0.0000
 XYZ=   37.3770   40.3820   27.2990 Q=    0.1330 A=    0.0000 R=    0.0000 C=    0.0000
 XYZ=   39.0370   36.7170   30.1050 Q=    0.5973 A=    0.0000 R=    0.0000 C=    0.0000
 XYZ=   39.3430   35.7720   29.3810 Q=   -0.5679 A=    0.0000 R=    0.0000 C=    0.0000
 XYZ=   38.5580   36.4780   31.3280 Q=   -0.4157 A=    0.0000 R=    0.0000 C=    0.0000
 XYZ=   38.3200   37.2450   31.9400 Q=    0.2719 A=    0.0000 R=    0.0000 C=    0.0000
 XYZ=   38.4570   35.1450   31.8880 Q=   -0.0252 A=    0.0000 R=    0.0000 C=    0.0000
 XYZ=   38.3440   35.2170   32.9700 Q=    0.0698 A=    0.0000 R=    0.0000 C=    0.0000
 XYZ=   39.3500   34.5830   31.6150 Q=    0.0698 A=    0.0000 R=    0.0000 C=    0.0000
 XYZ=   37.3150   34.4140   31.1980 Q=    0.5973 A=    0.0000 R=    0.0000 C=    0.0000
 XYZ=   36.2250   34.9650   31.0620 Q=   -0.5679 A=    0.0000 R=    0.0000 C=    0.0000
 XYZ=   37.6380   33.1900   30.7730 Q=   -0.4157 A=    0.0000 R=    0.0000 C=    0.0000
 XYZ=   38.5470   32.8340   31.0320 Q=    0.2719 A=    0.0000 R=    0.0000 C=    0.0000
 XYZ=   36.7290   32.5110   29.8710 Q=    0.0337 A=    0.0000 R=    0.0000 C=    0.0000
 XYZ=   35.6940   32.8440   29.7970 Q=    0.0823 A=    0.0000 R=    0.0000 C=    0.0000
 XYZ=   37.1990   32.8090   28.4500 Q=   -0.1825 A=    0.0000 R=    0.0000 C=    0.0000
 XYZ=   37.4080   33.8710   28.3170 Q=    0.0603 A=    0.0000 R=    0.0000 C=    0.0000
 XYZ=   38.1020   32.2420   28.2240 Q=    0.0603 A=    0.0000 R=    0.0000 C=    0.0000
 XYZ=   36.3740   32.4860   27.8150 Q=    0.0603 A=    0.0000 R=    0.0000 C=    0.0000
 XYZ=   36.6970   31.0150   30.1510 Q=    0.5973 A=    0.0000 R=    0.0000 C=    0.0000
 XYZ=   37.6910   30.2950   30.2120 Q=   -0.5679 A=    0.0000 R=    0.0000 C=    0.0000
 XYZ=   35.4770   30.5130   30.3590 Q=   -0.4157 A=    0.0000 R=    0.0000 C=    0.0000
 XYZ=   34.6570   31.0840   30.2120 Q=    0.2719 A=    0.0000 R=    0.0000 C=    0.0000
 XYZ=   35.1940   29.1270   30.6720 Q=   -0.0597 A=    0.0000 R=    0.0000 C=    0.0000
 XYZ=   36.0810   28.5190   30.4940 Q=    0.0869 A=    0.0000 R=    0.0000 C=    0.0000
 XYZ=   34.7850   29.0930   32.1420 Q=    0.1303 A=    0.0000 R=    0.0000 C=    0.0000
 XYZ=   33.8770   29.6900   32.2140 Q=    0.0187 A=    0.0000 R=    0.0000 C=    0.0000
 XYZ=   34.4860   27.6590   32.5690 Q=   -0.3204 A=    0.0000 R=    0.0000 C=    0.0000
 XYZ=   33.7260   27.2470   31.9050 Q=    0.0882 A=    0.0000 R=    0.0000 C=    0.0000
 XYZ=   35.4170   27.0920   32.5510 Q=    0.0882 A=    0.0000 R=    0.0000 C=    0.0000
 XYZ=   34.0170   27.6100   33.5520 Q=    0.0882 A=    0.0000 R=    0.0000 C=    0.0000
 XYZ=   35.8150   29.7350   33.0670 Q=   -0.0430 A=    0.0000 R=    0.0000 C=    0.0000
 XYZ=   36.1460   30.6530   32.5840 Q=    0.0236 A=    0.0000 R=    0.0000 C=    0.0000
 XYZ=   36.5740   28.9630   33.1930 Q=    0.0236 A=    0.0000 R=    0.0000 C=    0.0000
 XYZ=   35.1600   30.1130   34.3930 Q=   -0.0660 A=    0.0000 R=    0.0000 C=    0.0000
 XYZ=   34.6810   31.0920   34.3890 Q=    0.0186 A=    0.0000 R=    0.0000 C=    0.0000
 XYZ=   34.5450   29.3220   34.8230 Q=    0.0186 A=    0.0000 R=    0.0000 C=    0.0000
 XYZ=   35.9260   30.2420   35.1580 Q=    0.0186 A=    0.0000 R=    0.0000 C=    0.0000
 XYZ=   34.1130   28.6090   29.7340 Q=    0.5973 A=    0.0000 R=    0.0000 C=    0.0000
 XYZ=   33.2600   29.4170   29.3760 Q=   -0.5679 A=    0.0000 R=    0.0000 C=    0.0000
 XYZ=   34.0840   27.3180   29.3940 Q=   -0.4157 A=    0.0000 R=    0.0000 C=    0.0000
 XYZ=   34.8160   26.7330   29.7700 Q=    0.2719 A=    0.0000 R=    0.0000 C=    0.0000
 XYZ=   33.0100   26.6280   28.7090 Q=   -0.0031 A=    0.0000 R=    0.0000 C=    0.0000
 XYZ=   32.2120   27.3160   28.4290 Q=    0.0850 A=    0.0000 R=    0.0000 C=    0.0000
 XYZ=   33.4420   26.0740   27.3550 Q=   -0.0036 A=    0.0000 R=    0.0000 C=    0.0000
 XYZ=   34.1790   25.2980   27.5650 Q=    0.0171 A=    0.0000 R=    0.0000 C=    0.0000
 XYZ=   33.9980   26.8100   26.7740 Q=    0.0171 A=    0.0000 R=    0.0000 C=    0.0000
 XYZ=   32.3040   25.6650   26.4240 Q=   -0.0645 A=    0.0000 R=    0.0000 C=    0.0000
 XYZ=   31.8030   26.5470   26.0250 Q=    0.0352 A=    0.0000 R=    0.0000 C=    0.0000
 XYZ=   31.5370   25.1640   27.0140 Q=    0.0352 A=    0.0000 R=    0.0000 C=    0.0000
 XYZ=   32.9030   24.7970   25.3270 Q=    0.6951 A=    0.0000 R=    0.0000 C=    0.0000
 XYZ=   33.1460   23.5920   25.3700 Q=   -0.6086 A=    0.0000 R=    0.0000 C=    0.0000
 XYZ=   33.4080   25.4030   24.2510 Q=   -0.9407 A=    0.0000 R=    0.0000 C=    0.0000
 XYZ=   33.3410   26.4080   24.1740 Q=    0.4251 A=    0.0000 R=    0.0000 C=    0.0000
 XYZ=   33.8570   24.8630   23.5250 Q=    0.4251 A=    0.0000 R=    0.0000 C=    0.0000
 XYZ=   32.5050   25.5540   29.6630 Q=    0.5973 A=    0.0000 R=    0.0000 C=    0.0000
 XYZ=   33.2860   24.7960   30.2330 Q=   -0.5679 A=    0.0000 R=    0.0000 C=    0.0000
 XYZ=   31.1830   25.3840   29.7310 Q=   -0.4157 A=    0.0000 R=    0.0000 C=    0.0000
 XYZ=   30.6150   25.9710   29.1360 Q=    0.2719 A=    0.0000 R=    0.0000 C=    0.0000
 XYZ=   30.4670   24.4990   30.6280 Q=   -0.0518 A=    0.0000 R=    0.0000 C=    0.0000
 XYZ=   31.0830   23.8850   31.2840 Q=    0.0922 A=    0.0000 R=    0.0000 C=    0.0000
 XYZ=   29.7700   25.4110   31.6340 Q=   -0.1102 A=    0.0000 R=    0.0000 C=    0.0000
 XYZ=   29.1930   24.7930   32.3220 Q=    0.0457 A=    0.0000 R=    0.0000 C=    0.0000
 XYZ=   29.0770   26.0530   31.0910 Q=    0.0457 A=    0.0000 R=    0.0000 C=    0.0000
 XYZ=   30.6000   26.3400   32.5150 Q=    0.3531 A=    0.0000 R=    0.0000 C=    0.0000
 XYZ=   31.0670   27.1420   31.9420 Q=   -0.0361 A=    0.0000 R=    0.0000 C=    0.0000
 XYZ=   29.6230   27.0120   33.4750 Q=   -0.4121 A=    0.0000 R=    0.0000 C=    0.0000
 XYZ=   30.1440   27.6980   34.1430 Q=    0.1000 A=    0.0000 R=    0.0000 C=    0.0000
 XYZ=   28.9420   27.6540   32.9170 Q=    0.1000 A=    0.0000 R=    0.0000 C=    0.0000
 XYZ=   29.0750   26.2510   34.0310 Q=    0.1000 A=    0.0000 R=    0.0000 C=    0.0000
 XYZ=   31.7350   25.6550   33.2710 Q=   -0.4121 A=    0.0000 R=    0.0000 C=    0.0000
 XYZ=   31.3160   24.8400   33.8620 Q=    0.1000 A=    0.0000 R=    0.0000 C=    0.0000
 XYZ=   32.4140   25.2110   32.5430 Q=    0.1000 A=    0.0000 R=    0.0000 C=    0.0000
 XYZ=   32.3380   26.2730   33.9360 Q=    0.1000 A=    0.0000 R=    0.0000 C=    0.0000
 XYZ=   29.4630   23.6470   29.8630 Q=    0.5973 A=    0.0000 R=    0.0000 C=    0.0000
 XYZ=   28.9320   24.0470   28.8300 Q=   -0.5679 A=    0.0000 R=    0.0000 C=    0.0000
 XYZ=   29.1420   22.5290   30.5190 Q=   -0.5163 A=    0.0000 R=    0.0000 C=    0.0000
 XYZ=   29.5050   22.4090   31.4540 Q=    0.2936 A=    0.0000 R=    0.0000 C=    0.0000
 XYZ=   28.1020   21.5910   30.1480 Q=    0.0381 A=    0.0000 R=    0.0000 C=    0.0000
 XYZ=   27.7110   21.8160   29.1560 Q=    0.0880 A=    0.0000 R=    0.0000 C=    0.0000
 XYZ=   28.5160   20.1290   30.2840 Q=   -0.0303 A=    0.0000 R=    0.0000 C=    0.0000
 XYZ=   28.7230   19.9220   31.3340 Q=   -0.0122 A=    0.0000 R=    0.0000 C=    0.0000
 XYZ=   29.4790   19.9810   29.7950 Q=   -0.0122 A=    0.0000 R=    0.0000 C=    0.0000
 XYZ=   25.2520   34.6140   46.1260 Q=   -0.8340 A=    0.0000 R=    0.0000 C=    0.0000
 XYZ=   25.2450   35.5490   46.4570 Q=    0.4170 A=    0.0000 R=    0.0000 C=    0.0000
 XYZ=   26.0370   34.5280   45.5390 Q=    0.4170 A=    0.0000 R=    0.0000 C=    0.0000
 XYZ=   27.0360   21.9060   31.1870 Q=    0.5366 A=    0.0000 R=    0.0000 C=    0.0000
 XYZ=   27.3780   22.2320   32.3210 Q=   -0.5819 A=    0.0000 R=    0.0000 C=    0.0000
 XYZ=   49.9170   24.5410   32.5680 Q=    0.4170 A=    0.0000 R=    0.0000 C=    0.0000
 XYZ=   43.6310   29.2370   56.5080 Q=   -0.8340 A=    0.0000 R=    0.0000 C=    0.0000
 XYZ=   42.0180   23.7360   50.4130 Q=   -0.8340 A=    0.0000 R=    0.0000 C=    0.0000
 XYZ=   41.9530   24.6190   50.8290 Q=    0.4170 A=    0.0000 R=    0.0000 C=    0.0000
 XYZ=   26.2510   20.3000   35.3930 Q=    0.5366 A=    0.0000 R=    0.0000 C=    0.0000
 XYZ=   26.1720   20.2170   36.6160 Q=   -0.5819 A=    0.0000 R=    0.0000 C=    0.0000
 XYZ=   27.0960   21.1500   34.8040 Q=   -0.4157 A=    0.0000 R=    0.0000 C=    0.0000
 XYZ=   27.0700   21.1770   33.7940 Q=    0.2719 A=    0.0000 R=    0.0000 C=    0.0000
 XYZ=   28.0590   22.0230   35.4430 Q=   -0.0252 A=    0.0000 R=    0.0000 C=    0.0000
 XYZ=   27.7340   22.2250   36.4640 Q=    0.0698 A=    0.0000 R=    0.0000 C=    0.0000
 XYZ=   27.9710   22.9290   34.8430 Q=    0.0698 A=    0.0000 R=    0.0000 C=    0.0000
 XYZ=   29.5200   21.6430   35.2520 Q=    0.5973 A=    0.0000 R=    0.0000 C=    0.0000
 XYZ=   30.4190   22.2880   35.7860 Q=   -0.5679 A=    0.0000 R=    0.0000 C=    0.0000
 XYZ=   29.7840   20.7000   34.3450 Q=   -0.4157 A=    0.0000 R=    0.0000 C=    0.0000
 XYZ=   28.9550   20.2760   33.9550 Q=    0.2719 A=    0.0000 R=    0.0000 C=    0.0000
 XYZ=   31.1020   20.1700   34.0580 Q=    0.0143 A=    0.0000 R=    0.0000 C=    0.0000
 XYZ=   31.6550   20.1410   34.9960 Q=    0.1048 A=    0.0000 R=    0.0000 C=    0.0000
 XYZ=   31.1110   18.8050   33.3750 Q=   -0.2041 A=    0.0000 R=    0.0000 C=    0.0000
 XYZ=   30.5490   18.9340   32.4490 Q=    0.0797 A=    0.0000 R=    0.0000 C=    0.0000
 XYZ=   30.6640   18.0090   33.9700 Q=    0.0797 A=    0.0000 R=    0.0000 C=    0.0000
 XYZ=   32.5160   18.2820   33.1160 Q=    0.7130 A=    0.0000 R=    0.0000 C=    0.0000
 XYZ=   33.4160   18.5300   33.9140 Q=   -0.5931 A=    0.0000 R=    0.0000 C=    0.0000
 XYZ=   32.7240   17.6200   31.9750 Q=   -0.9191 A=    0.0000 R=    0.0000 C=    0.0000
 XYZ=   32.0590   17.3250   31.2740 Q=    0.4196 A=    0.0000 R=    0.0000 C=    0.0000
 XYZ=   33.7060   17.4170   31.8550 Q=    0.4196 A=    0.0000 R=    0.0000 C=    0.0000
 XYZ=   31.9100   21.1610   33.2320 Q=    0.5973 A=    0.0000 R=    0.0000 C=    0.0000
 XYZ=   31.4600   21.5960   32.1740 Q=   -0.5679 A=    0.0000 R=    0.0000 C=    0.0000
 XYZ=   33.1070   21.5290   33.6950 Q=   -0.4157 A=    0.0000 R=    0.0000 C=    0.0000
 XYZ=   33.4490   21.1400   34.5620 Q=    0.2719 A=    0.0000 R=    0.0000 C=    0.0000
 XYZ=   33.9910   22.4530   33.0130 Q=   -0.0597 A=    0.0000 R=    0.0000 C=    0.0000
 XYZ=   33.4150   23.2190   32.4940 Q=    0.0869 A=    0.0000 R=    0.0000 C=    0.0000
 XYZ=   35.0260   23.1260   33.9110 Q=    0.1303 A=    0.0000 R=    0.0000 C=    0.0000
 XYZ=   35.6860   22.3350   34.2660 Q=    0.0187 A=    0.0000 R=    0.0000 C=    0.0000
 XYZ=   35.9200   23.9350   32.9760 Q=   -0.3204 A=    0.0000 R=    0.0000 C=    0.0000
 XYZ=   36.6270   23.2980   32.4450 Q=    0.0882 A=    0.0000 R=    0.0000 C=    0.0000
 XYZ=   35.4430   24.5870   32.2440 Q=    0.0882 A=    0.0000 R=    0.0000 C=    0.0000
 XYZ=   36.4890   24.5790   33.6470 Q=    0.0882 A=    0.0000 R=    0.0000 C=    0.0000
 XYZ=   34.5180   23.8820   35.1350 Q=   -0.0430 A=    0.0000 R=    0.0000 C=    0.0000
 XYZ=   33.6380   23.4040   35.5660 Q=    0.0236 A=    0.0000 R=    0.0000 C=    0.0000
 XYZ=   34.1690   24.8390   34.7480 Q=    0.0236 A=    0.0000 R=    0.0000 C=    0.0000
 XYZ=   35.5160   24.1230   36.2640 Q=   -0.0660 A=    0.0000 R=    0.0000 C=    0.0000
 XYZ=   35.8180   23.1620   36.6790 Q=    0.0186 A=    0.0000 R=    0.0000 C=    0.0000
 XYZ=   36.4520   24.5580   35.9120 Q=    0.0186 A=    0.0000 R=    0.0000 C=    0.0000
 XYZ=   35.1810   24.8190   37.0330 Q=    0.0186 A=    0.0000 R=    0.0000 C=    0.0000
 XYZ=   34.7230   21.6910   31.9170 Q=    0.5973 A=    0.0000 R=    0.0000 C=    0.0000
 XYZ=   35.5740   20.8480   32.1920 Q=   -0.5679 A=    0.0000 R=    0.0000 C=    0.0000
 XYZ=   34.4280   22.0610   30.6690 Q=   -0.4157 A=    0.0000 R=    0.0000 C=    0.0000
 XYZ=   33.6410   22.6800   30.5340 Q=    0.2719 A=    0.0000 R=    0.0000 C=    0.0000
 XYZ=   34.9280   21.5470   29.4100 Q=   -0.0518 A=    0.0000 R=    0.0000 C=    0.0000
 XYZ=   35.1660   20.4830   29.4390 Q=    0.0922 A=    0.0000 R=    0.0000 C=    0.0000
 XYZ=   33.7790   21.7600   28.4290 Q=   -0.1102 A=    0.0000 R=    0.0000 C=    0.0000
 XYZ=   34.0920   21.6690   27.3880 Q=    0.0457 A=    0.0000 R=    0.0000 C=    0.0000
 XYZ=   33.3620   22.7560   28.5810 Q=    0.0457 A=    0.0000 R=    0.0000 C=    0.0000
 XYZ=   32.5840   20.8360   28.6470 Q=    0.3531 A=    0.0000 R=    0.0000 C=    0.0000
 XYZ=   32.3130   20.9650   29.6950 Q=   -0.0361 A=    0.0000 R=    0.0000 C=    0.0000
 XYZ=   31.3870   21.2510   27.7970 Q=   -0.4121 A=    0.0000 R=    0.0000 C=    0.0000
 XYZ=   30.9440   22.0710   28.3630 Q=    0.1000 A=    0.0000 R=    0.0000 C=    0.0000
 XYZ=   31.6890   21.6250   26.8190 Q=    0.1000 A=    0.0000 R=    0.0000 C=    0.0000
 XYZ=   30.6310   20.4760   27.6720 Q=    0.1000 A=    0.0000 R=    0.0000 C=    0.0000
 XYZ=   32.9580   19.4020   28.2830 Q=   -0.4121 A=    0.0000 R=    0.0000 C=    0.0000
 XYZ=   33.8240   18.9740   28.7870 Q=    0.1000 A=    0.0000 R=    0.0000 C=    0.0000
 XYZ=   32.1330   18.8490   28.7330 Q=    0.1000 A=    0.0000 R=    0.0000 C=    0.0000
 XYZ=   33.0740   19.2310   27.2130 Q=    0.1000 A=    0.0000 R=    0.0000 C=    0.0000
 XYZ=   36.1850   22.1930   28.8450 Q=    0.5973 A=    0.0000 R=    0.0000 C=    0.0000
 XYZ=   37.0850   21.5300   28.3350 Q=   -0.5679 A=    0.0000 R=    0.0000 C=    0.0000
 XYZ=   36.3180   23.5150   28.9810 Q=   -0.4157 A=    0.0000 R=    0.0000 C=    0.0000
 XYZ=   35.5960   24.0670   29.4210 Q=    0.2719 A=    0.0000 R=    0.0000 C=    0.0000
 XYZ=   37.4850   24.3440   28.7550 Q=   -0.0031 A=    0.0000 R=    0.0000 C=    0.0000
 XYZ=   38.3720   23.7320   28.9180 Q=    0.0850 A=    0.0000 R=    0.0000 C=    0.0000
 XYZ=   37.3500   24.8340   27.3160 Q=   -0.0036 A=    0.0000 R=    0.0000 C=    0.0000
 XYZ=   38.2410   25.3730   26.9940 Q=    0.0171 A=    0.0000 R=    0.0000 C=    0.0000
 XYZ=   36.5530   25.5760   27.2580 Q=    0.0171 A=    0.0000 R=    0.0000 C=    0.0000
 XYZ=   36.9350   23.8060   26.2680 Q=   -0.0645 A=    0.0000 R=    0.0000 C=    0.0000
 XYZ=   36.7730   24.4620   25.4120 Q=    0.0352 A=    0.0000 R=    0.0000 C=    0.0000
 XYZ=   35.9930   23.2840   26.4360 Q=    0.0352 A=    0.0000 R=    0.0000 C=    0.0000
 XYZ=   38.0490   22.8220   25.9430 Q=    0.6951 A=    0.0000 R=    0.0000 C=    0.0000
 XYZ=   39.1940   22.9160   26.3800 Q=   -0.6086 A=    0.0000 R=    0.0000 C=    0.0000
 XYZ=   37.9140   21.7810   25.1190 Q=   -0.9407 A=    0.0000 R=    0.0000 C=    0.0000
 XYZ=   36.9750   21.4100   25.1240 Q=    0.4251 A=    0.0000 R=    0.0000 C=    0.0000
 XYZ=   38.6490   21.1530   24.8240 Q=    0.4251 A=    0.0000 R=    0.0000 C=    0.0000
 XYZ=   37.5790   25.5380   29.6940 Q=    0.5973 A=    0.0000 R=    0.0000 C=    0.0000
 XYZ=   36.5650   26.1550   30.0130 Q=   -0.5679 A=    0.0000 R=    0.0000 C=    0.0000
 XYZ=   38.7890   25.9670   30.0630 Q=   -0.4157 A=    0.0000 R=    0.0000 C=    0.0000
 XYZ=   39.5920   25.6140   29.5620 Q=    0.2719 A=    0.0000 R=    0.0000 C=    0.0000
 XYZ=   39.0930   27.0340   30.9940 Q=   -0.0014 A=    0.0000 R=    0.0000 C=    0.0000
 XYZ=   38.3430   27.8250   30.9610 Q=    0.0876 A=    0.0000 R=    0.0000 C=    0.0000
 XYZ=   39.1640   26.3090   32.3340 Q=   -0.0152 A=    0.0000 R=    0.0000 C=    0.0000
 XYZ=   40.0000   25.6120   32.4020 Q=    0.0295 A=    0.0000 R=    0.0000 C=    0.0000
 XYZ=   38.1840   25.8440   32.4350 Q=    0.0295 A=    0.0000 R=    0.0000 C=    0.0000
 XYZ=   39.2710   27.1910   33.5550 Q=   -0.0011 A=    0.0000 R=    0.0000 C=    0.0000
 XYZ=   40.5140   27.7010   33.9460 Q=   -0.1906 A=    0.0000 R=    0.0000 C=    0.0000
 XYZ=   41.2710   27.6740   33.1760 Q=    0.1699 A=    0.0000 R=    0.0000 C=    0.0000
 XYZ=   40.6620   28.4020   35.1490 Q=   -0.2341 A=    0.0000 R=    0.0000 C=    0.0000
 XYZ=   41.6490   28.6730   35.4960 Q=    0.1656 A=    0.0000 R=    0.0000 C=    0.0000
 XYZ=   39.5710   28.4750   36.0370 Q=    0.3226 A=    0.0000 R=    0.0000 C=    0.0000
 XYZ=   39.8050   29.0480   37.2520 Q=   -0.5579 A=    0.0000 R=    0.0000 C=    0.0000
 XYZ=   38.9990   29.4230   37.6150 Q=    0.3992 A=    0.0000 R=    0.0000 C=    0.0000
 XYZ=   38.3080   27.9780   35.6560 Q=   -0.2341 A=    0.0000 R=    0.0000 C=    0.0000
 XYZ=   37.4830   28.0150   36.3510 Q=    0.1656 A=    0.0000 R=    0.0000 C=    0.0000
 XYZ=   38.1700   27.3730   34.4010 Q=   -0.1906 A=    0.0000 R=    0.0000 C=    0.0000
 XYZ=   37.2180   26.8850   34.2490 Q=    0.1699 A=    0.0000 R=    0.0000 C=    0.0000
 XYZ=   40.3630   27.7280   30.5230 Q=    0.5973 A=    0.0000 R=    0.0000 C=    0.0000
 XYZ=   41.3150   27.0240   30.1930 Q=   -0.5679 A=    0.0000 R=    0.0000 C=    0.0000
 XYZ=   40.3580   29.0560   30.3810 Q=   -0.4157 A=    0.0000 R=    0.0000 C=    0.0000
 XYZ=   39.5270   29.5390   30.6930 Q=    0.2719 A=    0.0000 R=    0.0000 C=    0.0000
 XYZ=   41.5470   29.7890   29.9960 Q=    0.0143 A=    0.0000 R=    0.0000 C=    0.0000
 XYZ=   42.1620   29.1040   29.4120 Q=    0.1048 A=    0.0000 R=    0.0000 C=    0.0000
 XYZ=   41.2380   30.8040   28.8990 Q=   -0.2041 A=    0.0000 R=    0.0000 C=    0.0000
 XYZ=   40.4510   30.5260   28.1990 Q=    0.0797 A=    0.0000 R=    0.0000 C=    0.0000
 XYZ=   42.1720   30.9350   28.3530 Q=    0.0797 A=    0.0000 R=    0.0000 C=    0.0000
 XYZ=   40.8250   32.1580   29.4580 Q=    0.7130 A=    0.0000 R=    0.0000 C=    0.0000
 XYZ=   40.5010   32.3510   30.6280 Q=   -0.5931 A=    0.0000 R=    0.0000 C=    0.0000
 XYZ=   40.8280   33.1650   28.5810 Q=   -0.9191 A=    0.0000 R=    0.0000 C=    0.0000
 XYZ=   40.9810   32.9190   27.6140 Q=    0.4196 A=    0.0000 R=    0.0000 C=    0.0000
 XYZ=   40.4980   34.0960   28.7920 Q=    0.4196 A=    0.0000 R=    0.0000 C=    0.0000
 XYZ=   42.4010   30.2160   31.1810 Q=    0.5973 A=    0.0000 R=    0.0000 C=    0.0000
 XYZ=   42.0250   29.9590   32.3230 Q=   -0.5679 A=    0.0000 R=    0.0000 C=    0.0000
 XYZ=   43.6690   30.5720   30.9650 Q=   -0.4157 A=    0.0000 R=    0.0000 C=    0.0000
 XYZ=   44.0000   30.4180   30.0230 Q=    0.2719 A=    0.0000 R=    0.0000 C=    0.0000
 XYZ=   44.6550   30.9810   31.9450 Q=    0.0337 A=    0.0000 R=    0.0000 C=    0.0000
 XYZ=   44.4950   30.3820   32.8420 Q=    0.0823 A=    0.0000 R=    0.0000 C=    0.0000
 XYZ=   46.0090   30.6260   31.3360 Q=   -0.1825 A=    0.0000 R=    0.0000 C=    0.0000
 XYZ=   46.0710   31.1010   30.3570 Q=    0.0603 A=    0.0000 R=    0.0000 C=    0.0000
 XYZ=   46.8920   30.8400   31.9380 Q=    0.0603 A=    0.0000 R=    0.0000 C=    0.0000
 XYZ=   46.0190   29.5450   31.1930 Q=    0.0603 A=    0.0000 R=    0.0000 C=    0.0000
 XYZ=   44.4390   32.3820   32.4980 Q=    0.5973 A=    0.0000 R=    0.0000 C=    0.0000
 XYZ=   44.6830   32.5720   33.6870 Q=   -0.5679 A=    0.0000 R=    0.0000 C=    0.0000
 XYZ=   43.8320   33.3290   31.7790 Q=   -0.4157 A=    0.0000 R=    0.0000 C=    0.0000
 XYZ=   43.9120   33.1520   30.7870 Q=    0.2719 A=    0.0000 R=    0.0000 C=    0.0000
 XYZ=   43.5840   34.6790   32.2410 Q=    0.0337 A=    0.0000 R=    0.0000 C=    0.0000
 XYZ=   44.3740   34.8890   32.9620 Q=    0.0823 A=    0.0000 R=    0.0000 C=    0.0000
 XYZ=   43.7400   35.6200   31.0500 Q=   -0.1825 A=    0.0000 R=    0.0000 C=    0.0000
 XYZ=   44.6990   35.5680   30.5340 Q=    0.0603 A=    0.0000 R=    0.0000 C=    0.0000
 XYZ=   42.9920   35.4430   30.2770 Q=    0.0603 A=    0.0000 R=    0.0000 C=    0.0000
 XYZ=   43.6070   36.6910   31.1990 Q=    0.0603 A=    0.0000 R=    0.0000 C=    0.0000
 XYZ=   42.3140   34.7640   33.0770 Q=    0.5973 A=    0.0000 R=    0.0000 C=    0.0000
 XYZ=   42.0970   35.7080   33.8340 Q=   -0.5679 A=    0.0000 R=    0.0000 C=    0.0000
 XYZ=   41.5370   33.6840   33.1770 Q=   -0.4157 A=    0.0000 R=    0.0000 C=    0.0000
 XYZ=   41.6170   32.9460   32.4920 Q=    0.2719 A=    0.0000 R=    0.0000 C=    0.0000
 XYZ=   40.6940   33.4540   34.3330 Q=    0.0145 A=    0.0000 R=    0.0000 C=    0.0000
 XYZ=   39.9330   34.2340   34.3430 Q=    0.0779 A=    0.0000 R=    0.0000 C=    0.0000
 XYZ=   40.0040   32.1210   34.0580 Q=   -0.0071 A=    0.0000 R=    0.0000 C=    0.0000
 XYZ=   40.6940   31.2910   33.9090 Q=    0.0256 A=    0.0000 R=    0.0000 C=    0.0000
 XYZ=   39.4900   32.2400   33.1040 Q=    0.0256 A=    0.0000 R=    0.0000 C=    0.0000
 XYZ=   38.8440   31.6950   34.9540 Q=   -0.0174 A=    0.0000 R=    0.0000 C=    0.0000
 XYZ=   39.2640   31.4940   35.9390 Q=    0.0430 A=    0.0000 R=    0.0000 C=    0.0000
 XYZ=   38.4510   30.7460   34.5890 Q=    0.0430 A=    0.0000 R=    0.0000 C=    0.0000
 XYZ=   37.7050   32.6950   35.0920 Q=    0.6801 A=    0.0000 R=    0.0000 C=    0.0000
 XYZ=   37.3430   33.4440   34.1880 Q=   -0.5838 A=    0.0000 R=    0.0000 C=    0.0000
 XYZ=   37.1890   32.7830   36.3510 Q=   -0.6511 A=    0.0000 R=    0.0000 C=    0.0000
 XYZ=   37.4350   32.0090   36.8630 Q=    0.4641 A=    0.0000 R=    0.0000 C=    0.0000
 XYZ=   41.4230   33.4300   35.6690 Q=    0.5973 A=    0.0000 R=    0.0000 C=    0.0000
 XYZ=   41.0130   33.9090   36.7240 Q=   -0.5679 A=    0.0000 R=    0.0000 C=    0.0000
 XYZ=   42.5370   32.6960   35.6240 Q=   -0.4157 A=    0.0000 R=    0.0000 C=    0.0000
 XYZ=   42.7850   32.2150   34.7710 Q=    0.2719 A=    0.0000 R=    0.0000 C=    0.0000
 XYZ=   43.4930   32.6260   36.7100 Q=   -0.0252 A=    0.0000 R=    0.0000 C=    0.0000
 XYZ=   44.3490   32.0280   36.3960 Q=    0.0698 A=    0.0000 R=    0.0000 C=    0.0000
 XYZ=   43.0160   32.0550   37.5070 Q=    0.0698 A=    0.0000 R=    0.0000 C=    0.0000
 XYZ=   43.9810   33.9810   37.2050 Q=    0.5973 A=    0.0000 R=    0.0000 C=    0.0000
 XYZ=   44.1150   34.2150   38.4040 Q=   -0.5679 A=    0.0000 R=    0.0000 C=    0.0000
 XYZ=   44.2010   34.8960   36.2580 Q=   -0.5163 A=    0.0000 R=    0.0000 C=    0.0000
 XYZ=   43.9380   34.6810   35.3070 Q=    0.2936 A=    0.0000 R=    0.0000 C=    0.0000
 XYZ=   44.6510   36.2000   36.7010 Q=    0.0381 A=    0.0000 R=    0.0000 C=    0.0000
 XYZ=   45.5290   36.0360   37.3250 Q=    0.0880 A=    0.0000 R=    0.0000 C=    0.0000
 XYZ=   45.0450   37.1350   35.5610 Q=   -0.0303 A=    0.0000 R=    0.0000 C=    0.0000
 XYZ=   44.1280   37.3460   35.0110 Q=   -0.0122 A=    0.0000 R=    0.0000 C=    0.0000
 XYZ=   45.6860   36.5490   34.9020 Q=   -0.0122 A=    0.0000 R=    0.0000 C=    0.0000
 XYZ=   45.7850   38.4180   35.9090 Q=    0.7994 A=    0.0000 R=    0.0000 C=    0.0000
 XYZ=   45.1470   39.4520   36.2030 Q=   -0.8014 A=    0.0000 R=    0.0000 C=    0.0000
 XYZ=   47.0280   38.3020   35.9640 Q=   -0.8014 A=    0.0000 R=    0.0000 C=    0.0000
 XYZ=   43.6310   36.8840   37.6000 Q=    0.5366 A=    0.0000 R=    0.0000 C=    0.0000
 XYZ=   44.1030   37.4900   38.5600 Q=   -0.5819 A=    0.0000 R=    0.0000 C=    0.0000
 XYZ=   42.3430   36.5630   37.4560 Q=   -0.4157 A=    0.0000 R=    0.0000 C=    0.0000
 XYZ=   42.1080   35.8360   36.7960 Q=    0.2719 A=    0.0000 R=    0.0000 C=    0.0000
 XYZ=   41.3640   37.1050   38.3760 Q=   -0.0597 A=    0.0000 R=    0.0000 C=    0.0000
 XYZ=   41.6930   38.0780   38.7390 Q=    0.0869 A=    0.0000 R=    0.0000 C=    0.0000
 XYZ=   40.0020   37.2360   37.6990 Q=    0.1303 A=    0.0000 R=    0.0000 C=    0.0000
 XYZ=   39.6280   36.2130   37.7230 Q=    0.0187 A=    0.0000 R=    0.0000 C=    0.0000
 XYZ=   39.1020   38.1270   38.5500 Q=   -0.3204 A=    0.0000 R=    0.0000 C=    0.0000
 XYZ=   39.1910   38.0050   39.6290 Q=    0.0882 A=    0.0000 R=    0.0000 C=    0.0000
 XYZ=   39.3830   39.1790   38.5010 Q=    0.0882 A=    0.0000 R=    0.0000 C=    0.0000
 XYZ=   38.0830   38.1300   38.1630 Q=    0.0882 A=    0.0000 R=    0.0000 C=    0.0000
 XYZ=   39.8840   37.5480   36.2100 Q=   -0.0430 A=    0.0000 R=    0.0000 C=    0.0000
 XYZ=   40.4610   36.8320   35.6260 Q=    0.0236 A=    0.0000 R=    0.0000 C=    0.0000
 XYZ=   40.3170   38.5210   35.9760 Q=    0.0236 A=    0.0000 R=    0.0000 C=    0.0000
 XYZ=   38.4860   37.3210   35.6420 Q=   -0.0660 A=    0.0000 R=    0.0000 C=    0.0000
 XYZ=   38.1650   36.3310   35.9650 Q=    0.0186 A=    0.0000 R=    0.0000 C=    0.0000
 XYZ=   37.8220   38.1280   35.9510 Q=    0.0186 A=    0.0000 R=    0.0000 C=    0.0000
 XYZ=   38.5700   37.4220   34.5590 Q=    0.0186 A=    0.0000 R=    0.0000 C=    0.0000
 XYZ=   41.3330   36.3100   39.6730 Q=    0.5973 A=    0.0000 R=    0.0000 C=    0.0000
 XYZ=   41.4420   36.9790   40.6990 Q=   -0.5679 A=    0.0000 R=    0.0000 C=    0.0000
 XYZ=   41.0510   35.0050   39.6730 Q=   -0.4157 A=    0.0000 R=    0.0000 C=    0.0000
 XYZ=   41.0180   34.5440   38.7750 Q=    0.2719 A=    0.0000 R=    0.0000 C=    0.0000
 XYZ=   40.5610   34.3120   40.8480 Q=   -0.0389 A=    0.0000 R=    0.0000 C=    0.0000
 XYZ=   40.4910   35.0510   41.6450 Q=    0.1007 A=    0.0000 R=    0.0000 C=    0.0000
 XYZ=   39.2220   33.6180   40.6140 Q=    0.3654 A=    0.0000 R=    0.0000 C=    0.0000
 XYZ=   38.7330   33.2550   41.5180 Q=    0.0043 A=    0.0000 R=    0.0000 C=    0.0000
 XYZ=   38.3120   34.5980   39.8800 Q=   -0.2438 A=    0.0000 R=    0.0000 C=    0.0000
 XYZ=   37.3110   34.1830   39.9990 Q=    0.0642 A=    0.0000 R=    0.0000 C=    0.0000
 XYZ=   38.3900   35.5370   40.4270 Q=    0.0642 A=    0.0000 R=    0.0000 C=    0.0000
 XYZ=   38.5100   34.6690   38.8100 Q=    0.0642 A=    0.0000 R=    0.0000 C=    0.0000
 XYZ=   39.4020   32.6200   39.6340 Q=   -0.6761 A=    0.0000 R=    0.0000 C=    0.0000
 XYZ=   38.5390   32.2330   39.4700 Q=    0.4102 A=    0.0000 R=    0.0000 C=    0.0000
 XYZ=   41.4930   33.2440   41.4030 Q=    0.5973 A=    0.0000 R=    0.0000 C=    0.0000
 XYZ=   41.2550   32.7280   42.4930 Q=   -0.5679 A=    0.0000 R=    0.0000 C=    0.0000
 XYZ=   42.6740   33.0170   40.8230 Q=   -0.4157 A=    0.0000 R=    0.0000 C=    0.0000
 XYZ=   42.7500   33.4900   39.9340 Q=    0.2719 A=    0.0000 R=    0.0000 C=    0.0000
 XYZ=   43.8000   32.3160   41.4060 Q=   -0.0252 A=    0.0000 R=    0.0000 C=    0.0000
 XYZ=   43.8830   32.5610   42.4650 Q=    0.0698 A=    0.0000 R=    0.0000 C=    0.0000
 XYZ=   44.7200   32.5930   40.8900 Q=    0.0698 A=    0.0000 R=    0.0000 C=    0.0000
 XYZ=   43.6280   30.8050   41.4660 Q=    0.5973 A=    0.0000 R=    0.0000 C=    0.0000
 XYZ=   43.9950   30.2860   42.5170 Q=   -0.5679 A=    0.0000 R=    0.0000 C=    0.0000
 XYZ=   43.0150   30.2000   40.4460 Q=   -0.3479 A=    0.0000 R=    0.0000 C=    0.0000
 XYZ=   42.6730   30.7980   39.7070 Q=    0.2747 A=    0.0000 R=    0.0000 C=    0.0000
 XYZ=   42.9160   28.7740   40.2090 Q=   -0.2637 A=    0.0000 R=    0.0000 C=    0.0000
 XYZ=   43.3390   28.3430   41.1160 Q=    0.1560 A=    0.0000 R=    0.0000 C=    0.0000
 XYZ=   41.5260   28.1470   40.1570 Q=   -0.0007 A=    0.0000 R=    0.0000 C=    0.0000
 XYZ=   41.4950   27.1320   39.7610 Q=    0.0327 A=    0.0000 R=    0.0000 C=    0.0000
 XYZ=   40.9270   28.7340   39.4600 Q=    0.0327 A=    0.0000 R=    0.0000 C=    0.0000
 XYZ=   40.7350   28.1270   41.4620 Q=    0.0390 A=    0.0000 R=    0.0000 C=    0.0000
 XYZ=   41.3790   27.4610   42.0370 Q=    0.0285 A=    0.0000 R=    0.0000 C=    0.0000
 XYZ=   39.8370   27.5360   41.2810 Q=    0.0285 A=    0.0000 R=    0.0000 C=    0.0000
 XYZ=   40.4570   29.4040   42.2500 Q=    0.0486 A=    0.0000 R=    0.0000 C=    0.0000
 XYZ=   39.9080   30.0130   41.5320 Q=    0.0687 A=    0.0000 R=    0.0000 C=    0.0000
 XYZ=   41.3990   29.8430   42.5780 Q=    0.0687 A=    0.0000 R=    0.0000 C=    0.0000
 XYZ=   39.6340   29.1390   43.4300 Q=   -0.5295 A=    0.0000 R=    0.0000 C=    0.0000
 XYZ=   39.3960   28.1590   43.4940 Q=    0.3456 A=    0.0000 R=    0.0000 C=    0.0000
 XYZ=   39.0010   29.9980   44.2400 Q=    0.8076 A=    0.0000 R=    0.0000 C=    0.0000
 XYZ=   39.1510   31.3290   44.1810 Q=   -0.8627 A=    0.0000 R=    0.0000 C=    0.0000
 XYZ=   39.8820   31.7090   43.5970 Q=    0.4478 A=    0.0000 R=    0.0000 C=    0.0000
 XYZ=   38.5830   31.9770   44.7060 Q=    0.4478 A=    0.0000 R=    0.0000 C=    0.0000
 XYZ=   38.0660   29.5580   45.0930 Q=   -0.8627 A=    0.0000 R=    0.0000 C=    0.0000
 XYZ=   37.9670   28.5890   45.3590 Q=    0.4478 A=    0.0000 R=    0.0000 C=    0.0000
 XYZ=   37.6230   30.3110   45.6000 Q=    0.4478 A=    0.0000 R=    0.0000 C=    0.0000
 XYZ=   43.7750   28.2690   39.0580 Q=    0.7341 A=    0.0000 R=    0.0000 C=    0.0000
 XYZ=   43.8750   28.8990   38.0070 Q=   -0.5894 A=    0.0000 R=    0.0000 C=    0.0000
 XYZ=   44.2810   27.0360   39.1270 Q=   -0.5163 A=    0.0000 R=    0.0000 C=    0.0000
 XYZ=   44.1860   26.5910   40.0290 Q=    0.2936 A=    0.0000 R=    0.0000 C=    0.0000
 XYZ=   45.1000   26.3410   38.1550 Q=    0.0381 A=    0.0000 R=    0.0000 C=    0.0000
 XYZ=   45.6400   27.0570   37.5350 Q=    0.0880 A=    0.0000 R=    0.0000 C=    0.0000
 XYZ=   46.1850   25.4820   38.7990 Q=   -0.0303 A=    0.0000 R=    0.0000 C=    0.0000
 XYZ=   45.9180   25.0730   39.7730 Q=   -0.0122 A=    0.0000 R=    0.0000 C=    0.0000
 XYZ=   46.8930   26.2660   39.0690 Q=   -0.0122 A=    0.0000 R=    0.0000 C=    0.0000
 XYZ=   46.8910   24.5020   37.8730 Q=    0.7994 A=    0.0000 R=    0.0000 C=    0.0000
 XYZ=   47.8310   24.8460   37.1250 Q=   -0.8014 A=    0.0000 R=    0.0000 C=    0.0000
 XYZ=   46.7140   23.2870   38.1070 Q=   -0.8014 A=    0.0000 R=    0.0000 C=    0.0000
 XYZ=   44.3120   25.5680   37.1070 Q=    0.5366 A=    0.0000 R=    0.0000 C=    0.0000
 XYZ=   43.8350   24.5180   37.5300 Q=   -0.5819 A=    0.0000 R=    0.0000 C=    0.0000
 XYZ=   44.3180   25.8930   35.8120 Q=   -0.2548 A=    0.0000 R=    0.0000 C=    0.0000
 XYZ=   44.8890   27.0980   35.2450 Q=    0.0192 A=    0.0000 R=    0.0000 C=    0.0000
 XYZ=   45.9710   26.9840   35.1720 Q=    0.0391 A=    0.0000 R=    0.0000 C=    0.0000
 XYZ=   44.7470   27.9700   35.8850 Q=    0.0391 A=    0.0000 R=    0.0000 C=    0.0000
 XYZ=   44.2830   27.3150   33.8620 Q=    0.0189 A=    0.0000 R=    0.0000 C=    0.0000
 XYZ=   45.0810   27.7900   33.2910 Q=    0.0213 A=    0.0000 R=    0.0000 C=    0.0000
 XYZ=   43.3540   27.8650   34.0140 Q=    0.0213 A=    0.0000 R=    0.0000 C=    0.0000
 XYZ=   43.9790   25.8750   33.4580 Q=   -0.0070 A=    0.0000 R=    0.0000 C=    0.0000
 XYZ=   44.8480   25.4930   32.9240 Q=    0.0253 A=    0.0000 R=    0.0000 C=    0.0000
 XYZ=   43.1530   26.0070   32.7580 Q=    0.0253 A=    0.0000 R=    0.0000 C=    0.0000
 XYZ=   43.5520   25.2330   34.7750 Q=   -0.0266 A=    0.0000 R=    0.0000 C=    0.0000
 XYZ=   42.5110   25.3930   35.0550 Q=    0.0641 A=    0.0000 R=    0.0000 C=    0.0000
 XYZ=   43.7420   23.7250   34.6860 Q=    0.5896 A=    0.0000 R=    0.0000 C=    0.0000
 XYZ=   42.7940   22.9690   34.4870 Q=   -0.5748 A=    0.0000 R=    0.0000 C=    0.0000
 XYZ=   44.9370   23.2260   35.0110 Q=   -0.3479 A=    0.0000 R=    0.0000 C=    0.0000
 XYZ=   45.6670   23.9150   35.1230 Q=    0.2747 A=    0.0000 R=    0.0000 C=    0.0000
 XYZ=   45.2010   21.8020   34.9590 Q=   -0.2400 A=    0.0000 R=    0.0000 C=    0.0000
 XYZ=   44.7720   21.5310   33.9940 Q=    0.1426 A=    0.0000 R=    0.0000 C=    0.0000
 XYZ=   46.6920   21.4760   34.9520 Q=   -0.0094 A=    0.0000 R=    0.0000 C=    0.0000
 XYZ=   47.0570   21.9110   35.8820 Q=    0.0362 A=    0.0000 R=    0.0000 C=    0.0000
 XYZ=   47.2190   22.0340   34.1780 Q=    0.0362 A=    0.0000 R=    0.0000 C=    0.0000
 XYZ=   46.8750   19.9660   34.8240 Q=    0.0187 A=    0.0000 R=    0.0000 C=    0.0000
 XYZ=   46.1740   19.5000   34.1310 Q=    0.0103 A=    0.0000 R=    0.0000 C=    0.0000
 XYZ=   46.7190   19.5410   35.8150 Q=    0.0103 A=    0.0000 R=    0.0000 C=    0.0000
 XYZ=   48.2910   19.6610   34.3450 Q=   -0.0479 A=    0.0000 R=    0.0000 C=    0.0000
 XYZ=   48.4160   18.5800   34.2830 Q=    0.0621 A=    0.0000 R=    0.0000 C=    0.0000
 XYZ=   49.0260   19.8810   35.1200 Q=    0.0621 A=    0.0000 R=    0.0000 C=    0.0000
 XYZ=   48.6170   20.1830   32.9490 Q=   -0.0143 A=    0.0000 R=    0.0000 C=    0.0000
 XYZ=   48.4480   21.2590   32.9080 Q=    0.1135 A=    0.0000 R=    0.0000 C=    0.0000
 XYZ=   48.0060   19.6290   32.2360 Q=    0.1135 A=    0.0000 R=    0.0000 C=    0.0000
 XYZ=   44.4580   21.0680   36.0660 Q=    0.7341 A=    0.0000 R=    0.0000 C=    0.0000
 XYZ=   43.9290   20.0190   35.7050 Q=   -0.5894 A=    0.0000 R=    0.0000 C=    0.0000
 XYZ=   44.2670   21.6110   37.2700 Q=   -0.4157 A=    0.0000 R=    0.0000 C=    0.0000
 XYZ=   44.6100   22.5470   37.4310 Q=    0.2719 A=    0.0000 R=    0.0000 C=    0.0000
 XYZ=   43.5240   20.9370   38.3160 Q=   -0.0031 A=    0.0000 R=    0.0000 C=    0.0000
 XYZ=   43.8820   19.9080   38.3630 Q=    0.0850 A=    0.0000 R=    0.0000 C=    0.0000
 XYZ=   43.8150   21.6100   39.6550 Q=   -0.0036 A=    0.0000 R=    0.0000 C=    0.0000
 XYZ=   43.7440   22.6920   39.5480 Q=    0.0171 A=    0.0000 R=    0.0000 C=    0.0000
 XYZ=   44.8730   21.4030   39.8190 Q=    0.0171 A=    0.0000 R=    0.0000 C=    0.0000
 XYZ=   42.9560   21.1860   40.8420 Q=   -0.0645 A=    0.0000 R=    0.0000 C=    0.0000
 XYZ=   42.8890   20.1000   40.9070 Q=    0.0352 A=    0.0000 R=    0.0000 C=    0.0000
 XYZ=   41.9910   21.6820   40.7360 Q=    0.0352 A=    0.0000 R=    0.0000 C=    0.0000
 XYZ=   43.5020   21.6570   42.1820 Q=    0.6951 A=    0.0000 R=    0.0000 C=    0.0000
 XYZ=   44.5010   22.3700   42.2580 Q=   -0.6086 A=    0.0000 R=    0.0000 C=    0.0000
 XYZ=   42.8160   21.3390   43.2820 Q=   -0.9407 A=    0.0000 R=    0.0000 C=    0.0000
 XYZ=   42.0300   20.7150   43.1710 Q=    0.4251 A=    0.0000 R=    0.0000 C=    0.0000
 XYZ=   43.2170   21.6350   44.1610 Q=    0.4251 A=    0.0000 R=    0.0000 C=    0.0000
 XYZ=   42.0340   20.9980   38.0160 Q=    0.5973 A=    0.0000 R=    0.0000 C=    0.0000
 XYZ=   41.3920   20.0010   38.3370 Q=   -0.5679 A=    0.0000 R=    0.0000 C=    0.0000
 XYZ=   41.4760   22.0670   37.4430 Q=   -0.4157 A=    0.0000 R=    0.0000 C=    0.0000
 XYZ=   42.1220   22.7960   37.1780 Q=    0.2719 A=    0.0000 R=    0.0000 C=    0.0000
 XYZ=   40.0540   22.3260   37.3430 Q=   -0.0875 A=    0.0000 R=    0.0000 C=    0.0000
 XYZ=   39.6450   21.8100   38.2110 Q=    0.0969 A=    0.0000 R=    0.0000 C=    0.0000
 XYZ=   39.8060   23.8050   37.6270 Q=    0.2985 A=    0.0000 R=    0.0000 C=    0.0000
 XYZ=   38.7270   23.8900   37.4960 Q=   -0.0297 A=    0.0000 R=    0.0000 C=    0.0000
 XYZ=   40.1950   24.2420   39.0370 Q=   -0.3192 A=    0.0000 R=    0.0000 C=    0.0000
 XYZ=   39.7840   25.2110   39.3170 Q=    0.0791 A=    0.0000 R=    0.0000 C=    0.0000
 XYZ=   39.6990   23.4890   39.6500 Q=    0.0791 A=    0.0000 R=    0.0000 C=    0.0000
 XYZ=   41.2690   24.2280   39.2240 Q=    0.0791 A=    0.0000 R=    0.0000 C=    0.0000
 XYZ=   40.3380   24.7190   36.5270 Q=   -0.3192 A=    0.0000 R=    0.0000 C=    0.0000
 XYZ=   39.8780   24.4050   35.5900 Q=    0.0791 A=    0.0000 R=    0.0000 C=    0.0000
 XYZ=   40.1670   25.7790   36.7160 Q=    0.0791 A=    0.0000 R=    0.0000 C=    0.0000
 XYZ=   41.4260   24.7070   36.4760 Q=    0.0791 A=    0.0000 R=    0.0000 C=    0.0000
 XYZ=   39.2640   21.7980   36.1540 Q=    0.5973 A=    0.0000 R=    0.0000 C=    0.0000
 XYZ=   38.0460   21.6740   36.2590 Q=   -0.5679 A=    0.0000 R=    0.0000 C=    0.0000
 XYZ=   39.9170   21.5300   35.0200 Q=   -0.4157 A=    0.0000 R=    0.0000 C=    0.0000
 XYZ=   40.9050   21.6860   34.8870 Q=    0.2719 A=    0.0000 R=    0.0000 C=    0.0000
 XYZ=   39.2120   20.9920   33.8740 Q=   -0.0597 A=    0.0000 R=    0.0000 C=    0.0000
 XYZ=   38.3650   21.6750   33.7930 Q=    0.0869 A=    0.0000 R=    0.0000 C=    0.0000
 XYZ=   40.0160   21.1970   32.5930 Q=    0.1303 A=    0.0000 R=    0.0000 C=    0.0000
 XYZ=   41.0450   20.9040   32.8030 Q=    0.0187 A=    0.0000 R=    0.0000 C=    0.0000
 XYZ=   39.6290   20.4250   31.3350 Q=   -0.3204 A=    0.0000 R=    0.0000 C=    0.0000
 XYZ=   39.4890   19.3640   31.5460 Q=    0.0882 A=    0.0000 R=    0.0000 C=    0.0000
 XYZ=   38.6550   20.7530   30.9720 Q=    0.0882 A=    0.0000 R=    0.0000 C=    0.0000
 XYZ=   40.3710   20.5230   30.5430 Q=    0.0882 A=    0.0000 R=    0.0000 C=    0.0000
 XYZ=   39.9910   22.6800   32.2360 Q=   -0.0430 A=    0.0000 R=    0.0000 C=    0.0000
 XYZ=   40.2060   23.2210   33.1580 Q=    0.0236 A=    0.0000 R=    0.0000 C=    0.0000
 XYZ=   39.0390   22.8440   31.7310 Q=    0.0236 A=    0.0000 R=    0.0000 C=    0.0000
 XYZ=   41.1240   23.0540   31.2840 Q=   -0.0660 A=    0.0000 R=    0.0000 C=    0.0000
 XYZ=   41.0940   24.1010   30.9840 Q=    0.0186 A=    0.0000 R=    0.0000 C=    0.0000
 XYZ=   42.0560   22.7060   31.7290 Q=    0.0186 A=    0.0000 R=    0.0000 C=    0.0000
 XYZ=   40.9350   22.6230   30.3010 Q=    0.0186 A=    0.0000 R=    0.0000 C=    0.0000
 XYZ=   38.7070   19.5760   34.1120 Q=    0.5973 A=    0.0000 R=    0.0000 C=    0.0000
 XYZ=   39.3300   18.5970   34.5170 Q=   -0.5679 A=    0.0000 R=    0.0000 C=    0.0000
 XYZ=   37.4030   19.4610   33.8500 Q=   -0.4157 A=    0.0000 R=    0.0000 C=    0.0000
 XYZ=   36.9080   20.2350   33.4300 Q=    0.2719 A=    0.0000 R=    0.0000 C=    0.0000
 XYZ=   36.6690   18.2490   34.1560 Q=   -0.0252 A=    0.0000 R=    0.0000 C=    0.0000
 XYZ=   37.1750   17.3420   33.8260 Q=    0.0698 A=    0.0000 R=    0.0000 C=    0.0000
 XYZ=   35.7910   18.2870   33.5120 Q=    0.0698 A=    0.0000 R=    0.0000 C=    0.0000
 XYZ=   36.1240   18.0810   35.5670 Q=    0.5973 A=    0.0000 R=    0.0000 C=    0.0000
 XYZ=   35.6220   17.0000   35.8680 Q=   -0.5679 A=    0.0000 R=    0.0000 C=    0.0000
 XYZ=   36.2080   19.1000   36.4260 Q=   -0.3479 A=    0.0000 R=    0.0000 C=    0.0000
 XYZ=   36.5510   19.9790   36.0670 Q=    0.2747 A=    0.0000 R=    0.0000 C=    0.0000
 XYZ=   35.4670   19.2890   37.6570 Q=   -0.2400 A=    0.0000 R=    0.0000 C=    0.0000
 XYZ=   35.1990   18.3760   38.1890 Q=    0.1426 A=    0.0000 R=    0.0000 C=    0.0000
 XYZ=   36.3590   19.9780   38.6850 Q=   -0.0094 A=    0.0000 R=    0.0000 C=    0.0000
 XYZ=   35.8340   19.9370   39.6390 Q=    0.0362 A=    0.0000 R=    0.0000 C=    0.0000
 XYZ=   36.5120   21.0100   38.3680 Q=    0.0362 A=    0.0000 R=    0.0000 C=    0.0000
 XYZ=   37.7170   19.3090   38.8830 Q=    0.0187 A=    0.0000 R=    0.0000 C=    0.0000
 XYZ=   38.1280   19.7140   39.8080 Q=    0.0103 A=    0.0000 R=    0.0000 C=    0.0000
 XYZ=   38.3500   19.6390   38.0600 Q=    0.0103 A=    0.0000 R=    0.0000 C=    0.0000
 XYZ=   37.8100   17.7900   38.9990 Q=   -0.0479 A=    0.0000 R=    0.0000 C=    0.0000
 XYZ=   37.7270   17.4310   37.9730 Q=    0.0621 A=    0.0000 R=    0.0000 C=    0.0000
 XYZ=   36.9060   17.4510   39.5050 Q=    0.0621 A=    0.0000 R=    0.0000 C=    0.0000
 XYZ=   39.0620   17.2540   39.6880 Q=   -0.0143 A=    0.0000 R=    0.0000 C=    0.0000
 XYZ=   39.0350   16.1720   39.8170 Q=    0.1135 A=    0.0000 R=    0.0000 C=    0.0000
 XYZ=   39.1470   17.7590   40.6510 Q=    0.1135 A=    0.0000 R=    0.0000 C=    0.0000
 XYZ=   40.2140   17.6820   38.8800 Q=   -0.3854 A=    0.0000 R=    0.0000 C=    0.0000
 XYZ=   40.3060   18.6860   38.8160 Q=    0.3400 A=    0.0000 R=    0.0000 C=    0.0000
 XYZ=   41.0010   17.2400   39.3320 Q=    0.3400 A=    0.0000 R=    0.0000 C=    0.0000
 XYZ=   40.2560   17.3420   37.9300 Q=    0.3400 A=    0.0000 R=    0.0000 C=    0.0000
 XYZ=   34.2090   20.0960   37.3680 Q=    0.7341 A=    0.0000 R=    0.0000 C=    0.0000
 XYZ=   34.0890   20.6350   36.2700 Q=   -0.5894 A=    0.0000 R=    0.0000 C=    0.0000
 XYZ=   33.2720   20.1190   38.3190 Q=   -0.4157 A=    0.0000 R=    0.0000 C=    0.0000
 XYZ=   33.4530   19.5850   39.1570 Q=    0.2719 A=    0.0000 R=    0.0000 C=    0.0000
 XYZ=   32.0240   20.8360   38.1520 Q=    0.0143 A=    0.0000 R=    0.0000 C=    0.0000
 XYZ=   31.8900   21.0460   37.0910 Q=    0.1048 A=    0.0000 R=    0.0000 C=    0.0000
 XYZ=   30.9040   20.0180   38.7910 Q=   -0.2041 A=    0.0000 R=    0.0000 C=    0.0000
 XYZ=   31.0300   20.1280   39.8680 Q=    0.0797 A=    0.0000 R=    0.0000 C=    0.0000
 XYZ=   30.9990   18.9760   38.4880 Q=    0.0797 A=    0.0000 R=    0.0000 C=    0.0000
 XYZ=   29.5460   20.5830   38.4010 Q=    0.7130 A=    0.0000 R=    0.0000 C=    0.0000
 XYZ=   29.2400   21.7540   38.6140 Q=   -0.5931 A=    0.0000 R=    0.0000 C=    0.0000
 XYZ=   28.6580   19.7920   37.7930 Q=   -0.9191 A=    0.0000 R=    0.0000 C=    0.0000
 XYZ=   28.8520   18.8110   37.6550 Q=    0.4196 A=    0.0000 R=    0.0000 C=    0.0000
 XYZ=   27.7610   20.2060   37.5850 Q=    0.4196 A=    0.0000 R=    0.0000 C=    0.0000
 XYZ=   32.2070   22.1910   38.8210 Q=    0.5973 A=    0.0000 R=    0.0000 C=    0.0000
 XYZ=   32.4810   22.2670   40.0160 Q=   -0.5679 A=    0.0000 R=    0.0000 C=    0.0000
 XYZ=   31.7290   23.2400   38.1470 Q=   -0.4157 A=    0.0000 R=    0.0000 C=    0.0000
 XYZ=   31.3560   23.1120   37.2170 Q=    0.2719 A=    0.0000 R=    0.0000 C=    0.0000
 XYZ=   32.0090   24.5870   38.6010 Q=   -0.0024 A=    0.0000 R=    0.0000 C=    0.0000
 XYZ=   33.0880   24.6870   38.7180 Q=    0.0978 A=    0.0000 R=    0.0000 C=    0.0000
 XYZ=   31.5630   25.4850   37.4510 Q=   -0.0343 A=    0.0000 R=    0.0000 C=    0.0000
 XYZ=   30.4810   25.3510   37.4450 Q=    0.0295 A=    0.0000 R=    0.0000 C=    0.0000
 XYZ=   31.9060   25.0700   36.5030 Q=    0.0295 A=    0.0000 R=    0.0000 C=    0.0000
 XYZ=   31.8880   26.9570   37.5280 Q=    0.0118 A=    0.0000 R=    0.0000 C=    0.0000
 XYZ=   33.1790   27.4350   37.2750 Q=   -0.1256 A=    0.0000 R=    0.0000 C=    0.0000
 XYZ=   33.9650   26.7340   37.0330 Q=    0.1330 A=    0.0000 R=    0.0000 C=    0.0000
 XYZ=   33.4800   28.8010   37.3210 Q=   -0.1704 A=    0.0000 R=    0.0000 C=    0.0000
 XYZ=   34.4790   29.0890   37.0290 Q=    0.1430 A=    0.0000 R=    0.0000 C=    0.0000
 XYZ=   32.5170   29.6670   37.8530 Q=   -0.1072 A=    0.0000 R=    0.0000 C=    0.0000
 XYZ=   32.8410   30.6840   38.0130 Q=    0.1297 A=    0.0000 R=    0.0000 C=    0.0000
 XYZ=   31.2420   29.1730   38.1570 Q=   -0.1704 A=    0.0000 R=    0.0000 C=    0.0000
 XYZ=   30.4540   29.7800   38.5770 Q=    0.1430 A=    0.0000 R=    0.0000 C=    0.0000
 XYZ=   30.8930   27.8280   37.9890 Q=   -0.1256 A=    0.0000 R=    0.0000 C=    0.0000
 XYZ=   29.9140   27.4420   38.2320 Q=    0.1330 A=    0.0000 R=    0.0000 C=    0.0000
 XYZ=   31.2790   24.8860   39.9030 Q=    0.5973 A=    0.0000 R=    0.0000 C=    0.0000
 XYZ=   31.8500   25.1420   40.9600 Q=   -0.5679 A=    0.0000 R=    0.0000 C=    0.0000
 XYZ=   29.9600   24.6860   39.9390 Q=   -0.4157 A=    0.0000 R=    0.0000 C=    0.0000
 XYZ=   29.5680   24.3010   39.0920 Q=    0.2719 A=    0.0000 R=    0.0000 C=    0.0000
 XYZ=   29.0850   24.8640   41.0810 Q=   -0.0024 A=    0.0000 R=    0.0000 C=    0.0000
 XYZ=   29.2070   25.8740   41.4740 Q=    0.0978 A=    0.0000 R=    0.0000 C=    0.0000
 XYZ=   27.6010   24.8890   40.7260 Q=   -0.0343 A=    0.0000 R=    0.0000 C=    0.0000
 XYZ=   27.1080   25.5500   41.4390 Q=    0.0295 A=    0.0000 R=    0.0000 C=    0.0000
 XYZ=   27.1710   23.8880   40.7310 Q=    0.0295 A=    0.0000 R=    0.0000 C=    0.0000
 XYZ=   27.5030   25.5010   39.3490 Q=    0.0118 A=    0.0000 R=    0.0000 C=    0.0000
 XYZ=   27.5340   26.9000   39.2900 Q=   -0.1256 A=    0.0000 R=    0.0000 C=    0.0000
 XYZ=   27.5860   27.5250   40.1700 Q=    0.1330 A=    0.0000 R=    0.0000 C=    0.0000
[...]
     3  C   -0.000007   0.000000   0.000000   0.000000   0.000248  -0.009572
     4  O   -0.000011   0.000000   0.000000   0.000000   0.000002   0.018904
     5  C    0.000181   0.000003   0.000000   0.000003   0.004859  -0.074538
     6  C   -0.010151  -0.000183  -0.000002  -0.000204  -0.016670   0.351819
     7  C   -0.050360   0.004001  -0.000212   0.004749  -0.039617  -0.037981
     8  C    0.006853   0.000031   0.006586  -0.038659   0.348876   0.007331
     9  C    0.000075   0.008657  -0.075351   0.320253  -0.037728  -0.000154
    10  C    0.002532  -0.039084   0.492126  -0.044375   0.003219  -0.000026
    11  C   -0.032380   0.330728  -0.090001   0.012249  -0.000793   0.000276
    12  C    0.338379  -0.037650   0.008706  -0.000295   0.007188  -0.010930
    13  H    0.617431  -0.006188  -0.000072   0.000022  -0.000229   0.009639
    14  H   -0.006188   0.638061   0.001468  -0.000270   0.000019  -0.000016
    15  O   -0.000072   0.001468   8.361129   0.007669  -0.000059   0.000000
    16  H    0.000022  -0.000270   0.007669   0.618483  -0.006476   0.000004
    17  H   -0.000229   0.000019  -0.000059  -0.006476   0.587089  -0.000128
    18  H    0.009639  -0.000016   0.000000   0.000004  -0.000128   0.588788
    19  H    0.000003   0.000000   0.000000   0.000002   0.003949   0.005517
    20  H    0.000000   0.000000   0.000000   0.000000   0.000000   0.000000
    21  H    0.000000   0.000000   0.000000   0.000000   0.000000  -0.000003
    22  H    0.000000   0.000000   0.000000   0.000000   0.000000   0.000000
             19         20         21         22
     1  C    0.000026   0.348246   0.352965   0.339644
     2  S    0.002087  -0.032980  -0.035220  -0.068646
     3  C   -0.040386   0.002499  -0.001742  -0.002138
     4  O    0.002624   0.000328   0.004794   0.000270
     5  C    0.354037  -0.000008   0.000175   0.000075
     6  C   -0.040008   0.000001  -0.000004  -0.000004
     7  C   -0.012522   0.000000   0.000000   0.000000
     8  C    0.005454   0.000000   0.000000   0.000000
     9  C    0.000332   0.000000   0.000000   0.000000
    10  C   -0.000010   0.000000   0.000000   0.000000
    11  C    0.000012   0.000000   0.000000   0.000000
    12  C    0.000050   0.000000   0.000000   0.000000
    13  H    0.000003   0.000000   0.000000   0.000000
    14  H    0.000000   0.000000   0.000000   0.000000
    15  O    0.000000   0.000000   0.000000   0.000000
    16  H    0.000002   0.000000   0.000000   0.000000
    17  H    0.003949   0.000000   0.000000   0.000000
    18  H    0.005517   0.000000  -0.000003   0.000000
    19  H    0.578704  -0.000003  -0.000002  -0.000001
    20  H   -0.000003   0.643591  -0.026332  -0.123435
    21  H   -0.000002  -0.026332   0.485318  -0.000237
    22  H   -0.000001  -0.123435  -0.000237   0.782961
 Mulliken atomic charges:
              1
     1  C   -0.383236
     2  S   -0.140172
     3  C    0.262504
     4  O   -0.566213
     5  C   -0.218138
     6  C   -0.183657
     7  C    0.163399
     8  C   -0.170098
     9  C   -0.298918
    10  C    0.418639
    11  C   -0.241062
    12  C   -0.198579
    13  H    0.124285
    14  H    0.100422
    15  O   -0.711987
    16  H    0.126846
    17  H    0.146225
    18  H    0.149718
    19  H    0.140135
    20  H    0.188091
    21  H    0.220287
    22  H    0.071511
 Sum of Mulliken charges=  -1.00000
 Atomic charges with hydrogens summed into heavy atoms:
              1
     1  C    0.096654
     2  S   -0.140172
     3  C    0.262504
     4  O   -0.566213
     5  C   -0.078004
     6  C   -0.033939
     7  C    0.163399
     8  C   -0.023873
     9  C   -0.172072
    10  C    0.418639
    11  C   -0.140641
    12  C   -0.074294
    13  H    0.000000
    14  H    0.000000
    15  O   -0.711987
    16  H    0.000000
    17  H    0.000000
    18  H    0.000000
    19  H    0.000000
    20  H    0.000000
    21  H    0.000000
    22  H    0.000000
 Sum of Mulliken charges=  -1.00000
 Electronic spatial extent (au):  <R**2>=***********
 Charge=    -1.0000 electrons
 Dipole moment (field-independent basis, Debye):
    X=  -173.0853    Y=  -147.6926    Z=  -194.1846  Tot=   299.1309
 Quadrupole moment (field-independent basis, Debye-Ang):
   XX= -6334.7137   YY= -4631.3165   ZZ= -7976.1970
   XY= -5321.9353   XZ= -6976.3930   YZ= -5975.3258
 Traceless Quadrupole moment (field-independent basis, Debye-Ang):
   XX=   -20.6380   YY=  1682.7592   ZZ= -1662.1212
   XY= -5321.9353   XZ= -6976.3930   YZ= -5975.3258
 Octapole moment (field-independent basis, Debye-Ang**2):
  XXX=***********  YYY=***********  ZZZ=***********  XYY=***********
  XXY=***********  XXZ=***********  XZZ=***********  YZZ=***********
  YYZ=***********  XYZ=***********
 Hexadecapole moment (field-independent basis, Debye-Ang**3):
 XXXX=*********** YYYY=*********** ZZZZ=*********** XXXY=***********
 XXXZ=*********** YYYX=*********** YYYZ=*********** ZZZX=***********
 ZZZY=*********** XXYY=*********** XXZZ=*********** YYZZ=***********
 XXYZ=*********** YYXZ=*********** ZZXY=***********
 N-N= 7.750031360398D+02 E-N=-3.752923321793D+03  KE= 9.290460599493D+02
 No NMR shielding tensors so no spin-rotation constants.
 Leave Link  601 at Mon Jul 11 11:40:07 2011, MaxMem=   50000000 cpu:       0.8
 (Enter /home/tgraen/Software/g03/l602.exe)
 Merz-Kollman atomic radii used.

 **********************************************************************

            Electrostatic Properties Using The SCF Density

 **********************************************************************

       Atomic Center    1 is at  31.587000 31.938000 46.570000
       Atomic Center    2 is at  32.599000 32.712000 45.101000
       Atomic Center    3 is at  33.668000 31.420000 44.394000
       Atomic Center    4 is at  33.700000 30.328000 44.992000
       Atomic Center    5 is at  34.286000 31.695000 43.153000
       Atomic Center    6 is at  35.243000 30.818000 42.737000
       Atomic Center    7 is at  35.891000 30.819000 41.500000
       Atomic Center    8 is at  35.685000 31.854000 40.583000
       Atomic Center    9 is at  36.219000 31.691000 39.335000
       Atomic Center   10 is at  36.982000 30.531000 38.833000
       Atomic Center   11 is at  37.224000 29.556000 39.855000
       Atomic Center   12 is at  36.708000 29.751000 41.100000
       Atomic Center   13 is at  36.614000 28.889000 41.852000
       Atomic Center   14 is at  37.923000 28.735000 39.642000
       Atomic Center   15 is at  37.427000 30.431000 37.691000
       Atomic Center   16 is at  36.130000 32.397000 38.506000
       Atomic Center   17 is at  35.185000 32.783000 40.846000
       Atomic Center   18 is at  35.484000 30.017000 43.439000
       Atomic Center   19 is at  34.007000 32.560000 42.534000
       Atomic Center   20 is at  31.286000 32.909000 46.949000
       Atomic Center   21 is at  32.397000 31.500000 47.360000
       Atomic Center   22 is at  30.608633 32.049568 46.079744
    1168 points will be used for fitting atomic charges
 Fitting point charges to eletrostatic potential
 The dipole moment will be constrained to the correct value
 Charges from ESP fit, RMS=   0.00260 RRMS=   0.02345:
 Charge=  -1.00000 Dipole=  -173.0853  -147.6926  -194.1846 Tot=   299.1309
              1
     1  C   -0.340257
     2  S   -0.527461
     3  C    0.694959
     4  O   -0.528395
     5  C   -0.678694
     6  C    0.120979
     7  C    0.032890
     8  C    0.042014
     9  C   -0.489185
    10  C    0.570666
    11  C   -0.158169
    12  C   -0.351724
    13  H    0.175026
    14  H    0.069364
    15  O   -0.733790
    16  H    0.151016
    17  H    0.070935
    18  H    0.039334
    19  H    0.270601
    20  H    0.156796
    21  H    0.212097
    22  H    0.200997
 -----------------------------------------------------------------

              Electrostatic Properties (Atomic Units)

 -----------------------------------------------------------------
    Center     Electric         -------- Electric Field --------
               Potential          X             Y             Z
 -----------------------------------------------------------------
    1 Atom    -14.747952
    2 Atom    -59.312472
    3 Atom    -14.779657
    4 Atom    -22.485906
    5 Atom    -14.876763
    6 Atom    -14.858890
    7 Atom    -14.884548
    8 Atom    -14.873918
    9 Atom    -14.910891
   10 Atom    -14.866000
   11 Atom    -14.907685
   12 Atom    -14.871563
   13 Atom     -1.227053
   14 Atom     -1.254925
   15 Atom    -22.570090
   16 Atom     -1.265482
   17 Atom     -1.220710
   18 Atom     -1.233220
   19 Atom     -1.218964
   20 Atom     -1.168531
   21 Atom     -1.109177
   22 Atom     -1.146329
 -----------------------------------------------------------------
 Leave Link  602 at Mon Jul 11 11:40:08 2011, MaxMem=   50000000 cpu:       0.4
 (Enter /home/tgraen/Software/g03/devel/l701/l701.exe)
 Compute integral first derivatives.
 ... and contract with generalized density number  0.
 lets do the pointcharges....
 seems to work
 what the fuck
 what the fuck
 Leave Link  701 at Mon Jul 11 11:40:16 2011, MaxMem=   50000000 cpu:      27.1
 (Enter /home/tgraen/Software/g03/l702.exe)
 L702 exits ... SP integral derivatives will be done elsewhere.
 Leave Link  702 at Mon Jul 11 11:40:16 2011, MaxMem=   50000000 cpu:       0.0
 (Enter /home/tgraen/Software/g03/l703.exe)
 Compute integral first derivatives, UseDBF=F.
 Integral derivatives from FoFDir, PRISM(SPDF).
 Symmetry not used in FoFDir.
 MinBra= 0 MaxBra= 2 Meth= 1.
 IRaf=       0 NMat=   1 IRICut=       1 DoRegI=T DoRafI=F ISym2E= 0 JSym2E=0.
 Leave Link  703 at Mon Jul 11 11:40:27 2011, MaxMem=   50000000 cpu:      42.3
 (Enter /home/tgraen/Software/g03/l716.exe)
 Dipole        =-6.80970086D+01-5.81067630D+01-7.63981034D+01
 -------------------------------------------------------------------
 Center     Atomic                   Forces (Hartrees/Bohr)
 Number     Number              X              Y              Z
 -------------------------------------------------------------------
    1          6           0.042652711    0.055137615   -0.011890205
    2         16          -0.000176032    0.013680308    0.009803317
    3          6          -0.022133752   -0.030654725    0.020414689
    4          8           0.001453397    0.007552731    0.000847702
    5          6          -0.000881647    0.019426854   -0.004175009
    6          6           0.002039007   -0.012153573    0.007401689
    7          6          -0.000193727    0.008092335    0.002464686
    8          6           0.011228476    0.008179643   -0.025574978
    9          6           0.007778888    0.005296662   -0.039340378
   10          6          -0.015815511    0.007395421    0.061697523
   11          6           0.016272406   -0.005778227   -0.000103234
   12          6          -0.019895727   -0.050550209    0.037629394
   13          1           0.019789010    0.019593841   -0.019854254
   14          1          -0.010168172    0.000460015    0.000108646
   15          8           0.021806744    0.010403156   -0.053540220
   16          1          -0.006670965    0.009940499    0.008026573
   17          1          -0.002099622   -0.001772370   -0.001288302
   18          1          -0.000701449   -0.000594528   -0.002449922
   19          1          -0.000439557   -0.005953765    0.010329703
   20          1           0.024782944    0.020122530    0.028780409
   21          1          -0.061552521   -0.004908786   -0.040930378
   22          1          -0.005624178   -0.069593566    0.007288028
 -------------------------------------------------------------------
 Cartesian Forces:  Max     0.069593566 RMS     0.023509359
 Leave Link  716 at Mon Jul 11 11:40:28 2011, MaxMem=   50000000 cpu:       0.1
 (Enter /home/tgraen/Software/g03/l103.exe)

 GradGradGradGradGradGradGradGradGradGradGradGradGradGradGradGradGradGrad
 Berny optimization.
 Search for a local minimum.
 Step number   1 out of a maximum of   2
 All quantities printed in internal units (Hartrees-Bohrs-Radians)
 Second derivative matrix not updated -- first step.
     Eigenvalues ---    0.00002   0.00022   0.00049   0.00115   0.00246
     Eigenvalues ---    0.00280   0.00644   0.00877   0.01183   0.01672
     Eigenvalues ---    0.01780   0.02237   0.02421   0.03535   0.04132
     Eigenvalues ---    0.05213   0.06032   0.06449   0.06556   0.07216
     Eigenvalues ---    0.07402   0.07568   0.08589   0.09431   0.09901
     Eigenvalues ---    0.11078   0.11527   0.12098   0.13042   0.13335
     Eigenvalues ---    0.15092   0.16844   0.18812   0.19744   0.22841
     Eigenvalues ---    0.25500   0.27032   0.30697   0.31133   0.34308
     Eigenvalues ---    0.35443   0.39311   0.39311   0.39311   0.39311
     Eigenvalues ---    0.43994   0.46825   0.48623   0.61492   0.64875
     Eigenvalues ---    0.67469   0.73698   0.75849   0.81369   1.00048
     Eigenvalues ---    1.05343   1.11767   1.17469   1.26775   1.43957
     Eigenvalues ---    1.49852   1.58655   1.71005   1.97461   2.15941
 Quadratic step=5.534D+01 exceeds max=3.000D-01 adjusted using Lamda=-3.131D-01.
 Angle between NR and scaled steps=  85.03 degrees.
 Angle between quadratic step and forces=  29.90 degrees.
 Linear search not attempted -- first point.
 Variable       Old X    -DE/DX   Delta X   Delta X   Delta X     New X
                                 (Linear)    (Quad)   (Total)
    X1       59.69078   0.04265   0.00000   0.03764   0.03764  59.72841
    Y1       60.35407   0.05514   0.00000   0.08427   0.08427  60.43835
    Z1       88.00455  -0.01189   0.00000  -0.01190  -0.01190  87.99265
    X2       61.60318  -0.00018   0.00000   0.01174   0.01174  61.61492
    Y2       61.81672   0.01368   0.00000   0.04145   0.04145  61.85817
    Z2       85.22854   0.00980   0.00000   0.01538   0.01538  85.24392
    X3       63.62330  -0.02213   0.00000  -0.04509  -0.04509  63.57820
    Y3       59.37520  -0.03065   0.00000  -0.02878  -0.02878  59.34642
    Z3       83.89250   0.02041   0.00000   0.01642   0.01642  83.90892
    X4       63.68377   0.00145   0.00000  -0.00083  -0.00083  63.68294
    Y4       57.31161   0.00755   0.00000  -0.00766  -0.00766  57.30395
    Z4       85.02256   0.00085   0.00000   0.02404   0.02404  85.04660
    X5       64.79115  -0.00088   0.00000  -0.00523  -0.00523  64.78592
    Y5       59.89487   0.01943   0.00000   0.00999   0.00999  59.90486
    Z5       81.54735  -0.00418   0.00000   0.01635   0.01635  81.56371
    X6       66.59962   0.00204   0.00000  -0.00258  -0.00258  66.59704
    Y6       58.23758  -0.01215   0.00000  -0.00421  -0.00421  58.23337
    Z6       80.76123   0.00740   0.00000   0.00901   0.00901  80.77023
    X7       67.82416  -0.00019   0.00000   0.00095   0.00095  67.82511
    Y7       58.23947   0.00809   0.00000   0.00182   0.00182  58.24129
    Z7       78.42363   0.00246   0.00000  -0.00086  -0.00086  78.42278
    X8       67.43488   0.01123   0.00000   0.02076   0.02076  67.45563
    Y8       60.19534   0.00818   0.00000   0.00704   0.00704  60.20238
    Z8       76.69076  -0.02557   0.00000  -0.04232  -0.04232  76.64844
    X9       68.44399   0.00778   0.00000   0.00765   0.00765  68.45164
    Y9       59.88731   0.00530   0.00000   0.01217   0.01217  59.89948
    Z9       74.33238  -0.03934   0.00000  -0.05114  -0.05114  74.28124
   X10       69.88585  -0.01582   0.00000   0.01244   0.01244  69.89829
   Y10       57.69523   0.00740   0.00000   0.00971   0.00971  57.70494
   Z10       73.38373   0.06170   0.00000   0.02270   0.02270  73.40644
   X11       70.34317   0.01627   0.00000   0.01405   0.01405  70.35722
   Y11       55.85275  -0.00578   0.00000  -0.00832  -0.00832  55.84442
   Z11       75.31504  -0.00010   0.00000   0.02057   0.02057  75.33561
   X12       69.36807  -0.01990   0.00000  -0.02761  -0.02761  69.34046
   Y12       56.22124  -0.05055   0.00000  -0.05571  -0.05571  56.16553
   Z12       77.66774   0.03763   0.00000   0.03073   0.03073  77.69848
   X13       69.19043   0.01979   0.00000   0.04542   0.04542  69.23585
   Y13       54.59230   0.01959   0.00000   0.00827   0.00827  54.60057
   Z13       79.08882  -0.01985   0.00000  -0.01283  -0.01283  79.07598
   X14       71.66408  -0.01017   0.00000  -0.01527  -0.01527  71.64881
   Y14       54.30128   0.00046   0.00000  -0.00642  -0.00642  54.29486
   Z14       74.91252   0.00011   0.00000   0.00004   0.00004  74.91257
   X15       70.72678   0.02181   0.00000   0.02061   0.02061  70.74739
   Y15       57.50626   0.01040   0.00000   0.03168   0.03168  57.53793
   Z15       71.22567  -0.05354   0.00000  -0.03069  -0.03069  71.19498
   X16       68.27581  -0.00667   0.00000  -0.01964  -0.01964  68.25616
   Y16       61.22146   0.00994   0.00000   0.03273   0.03273  61.25419
   Z16       72.76579   0.00803   0.00000  -0.00386  -0.00386  72.76194
   X17       66.49001  -0.00210   0.00000  -0.00296  -0.00296  66.48705
   Y17       61.95089  -0.00177   0.00000  -0.00704  -0.00704  61.94385
   Z17       77.18775  -0.00129   0.00000  -0.01546  -0.01546  77.17229
   X18       67.05504  -0.00070   0.00000  -0.00072  -0.00072  67.05432
   Y18       56.72391  -0.00059   0.00000  -0.00540  -0.00540  56.71851
   Z18       82.08781  -0.00245   0.00000  -0.00221  -0.00221  82.08560
   X19       64.26392  -0.00044   0.00000  -0.00579  -0.00579  64.25812
   Y19       61.52948  -0.00595   0.00000  -0.00489  -0.00489  61.52460
   Z19       80.37761   0.01033   0.00000   0.02455   0.02455  80.40216
   X20       59.12197   0.02478   0.00000   0.06149   0.06149  59.18346
   Y20       62.18900   0.02012   0.00000   0.06337   0.06337  62.25236
   Z20       88.72075   0.02878   0.00000   0.06828   0.06828  88.78903
   X21       61.22146  -0.06155   0.00000  -0.10589  -0.10589  61.11556
   Y21       59.52637  -0.00491   0.00000  -0.01318  -0.01318  59.51319
   Z21       89.49743  -0.04093   0.00000  -0.08911  -0.08911  89.40832
   X22       57.84193  -0.00562   0.00000   0.00095   0.00095  57.84288
   Y22       60.56491  -0.06959   0.00000  -0.15619  -0.15619  60.40872
   Z22       87.07810   0.00729   0.00000   0.00613   0.00613  87.08423
         Item               Value     Threshold  Converged?
 Maximum Force            0.069594     0.000450     NO 
 RMS     Force            0.023509     0.000300     NO 
 Maximum Displacement     0.156185     0.001800     NO 
 RMS     Displacement     0.036929     0.001200     NO 
 Predicted change in Energy=-3.892908D-02
 GradGradGradGradGradGradGradGradGradGradGradGradGradGradGradGradGradGrad

 Leave Link  103 at Mon Jul 11 11:40:28 2011, MaxMem=   50000000 cpu:       0.3
 (Enter /home/tgraen/Software/g03/devel/l9999/l9999.exe)
 IPCord =                        0
 Nat3 =                       66
 LenFX =                       66
 number of CI vec. elem. is                       -2
 number of pointcharges is                     8643
 so far so good
 before hit
 ISLW(*,25,*) =                        1
 hit
 Punchen maar.... !
 IPunch =                        7
 IPrint =                        0
 IPDerv =                        1
 IPCord =                        0
 LenFX =                       66
 numch in punout =                     2881
 Ncivec/2 in punout:                       0                        0
 zodat was dat


 THERE IS AN OLD, OLD RECIPE IN MAINE FOR STEWING COOT. PLACE THE
 BIRD IN A KETTLE OF WATER WITH A RED BUILDING BRICK FREE OF MORTAR AND
 BLEMISHES. PARBOIL THE COOT AND BRICK TOGETHER FOR THREE HOURS.
 POUR OFF THE WATER, REFILL THE KETTLE, AND AGAIN PARBOIL FOR THREE HOURS.
 ONCE AGAIN POUR OFF THE WATER, FOR THE LAST TIME ADD FRESH WATER,
 AND LET THE COOT AND BRICK SIMMER TOGETHER OVERNIGHT. IN THE MORNING,
 THROW AWAY THE COOT AND EAT THE BRICK.
 Job cpu time:  0 days  0 hours  3 minutes 52.4 seconds.
 File lengths (MBytes):  RWF=     38 Int=      0 D2E=      0 Chk=      9 Scr=      1
 Normal termination of Gaussian 03 at Mon Jul 11 11:40:28 2011.
